# Probe 0 (0.015 0 -0.00336)
# Probe 1 (0.03 0 -0.00672)
# Probe 2 (0.045 0 -0.01008)
# Probe 3 (0.06 0 -0.01344)
# Time        0             1             2             3            
0             100000        100000        100000        100000       
1e-05         99997.8       99998.8       100000        100001       
2e-05         99993.6       99996.3       100000        100002       
3e-05         99987.8       99992.3       100000        100004       
4e-05         99980.2       99987         99999.9       100007       
5e-05         99969.6       99980.8       99999.6       100011       
6e-05         99955.7       99973.8       99999.1       100015       
7e-05         99939.3       99966.3       99998.6       100020       
8e-05         99921.8       99958.4       99997.9       100025       
9e-05         99904.9       99950.2       99997.4       100030       
0.0001        99889.2       99941.8       99996.9       100035       
0.00011       99874.7       99933.3       99996.6       100040       
0.00012       99861.5       99925.1       99996.4       100044       
0.00013       99849.6       99917.5       99996.2       100048       
0.00014       99839.6       99911.1       99995.8       100051       
0.00015       99831.8       99906.1       99995.3       100054       
0.00016       99826.7       99902.7       99994.8       100056       
0.00017       99824.4       99901.1       99994.2       100057       
0.00018       99824.8       99901.2       99993.7       100057       
0.00019       99827.9       99902.9       99993.5       100056       
0.0002        99833.6       99906.3       99993.6       100055       
0.00021       99842.4       99911         99994.1       100053       
0.00022       99854.7       99917.1       99994.9       100050       
0.00023       99869.2       99924.2       99995.9       100047       
0.00024       99883         99932.4       99997.2       100044       
0.00025       99893.9       99941.4       99998.6       100040       
0.00026       99902.6       99951         100000        100036       
0.00027       99911.8       99960.5       100002        100032       
0.00028       99923.8       99969.3       100004        100028       
0.00029       99938         99976.8       100005        100025       
0.0003        99952.5       99982.7       100007        100022       
0.00031       99964.9       99987.1       100008        100019       
0.00032       99974.2       99990.5       100009        100017       
0.00033       99980.4       99993.2       100009        100015       
0.00034       99984.1       99995.2       100009        100014       
0.00035       99986.1       99996.5       100008        100014       
0.00036       99986.4       99996.7       100007        100014       
0.00037       99984.7       99995.8       100005        100015       
0.00038       99980.7       99993.4       100005        100016       
0.00039       99974.5       99989.8       100004        100017       
0.0004        99966.7       99985         100004        100020       
0.00041       99957         99979.3       100004        100023       
0.00042       99945.2       99972.9       100004        100026       
0.00043       99932         99966.2       100004        100030       
0.00044       99918.1       99959.4       100004        100034       
0.00045       99904.4       99952.7       100004        100038       
0.00046       99892.2       99946.2       100004        100042       
0.00047       99881.9       99940.1       100004        100046       
0.00048       99873.1       99934.5       100004        100049       
0.00049       99865.3       99929.7       100003        100052       
0.0005        99858.7       99926         100003        100054       
0.00051       99854         99923.4       100003        100056       
0.00052       99851.4       99922.2       100002        100057       
0.00053       99851.2       99922.2       100002        100057       
0.00054       99853.4       99923.4       100002        100057       
0.00055       99858         99925.7       100002        100057       
0.00056       99864.6       99928.9       100002        100055       
0.00057       99872.8       99933.1       100003        100053       
0.00058       99882         99938         100004        100051       
0.00059       99892         99943.7       100004        100048       
0.0006        99902.6       99949.9       100005        100045       
0.00061       99913.5       99956.6       100006        100042       
0.00062       99924.4       99963.4       100007        100039       
0.00063       99935         99970.1       100008        100035       
0.00064       99944.9       99976.5       100009        100032       
0.00065       99954         99982.3       100010        100029       
0.00066       99961.9       99987.4       100011        100026       
0.00067       99968.5       99991.6       100011        100024       
0.00068       99973.5       99994.7       100012        100023       
0.00069       99976.9       99996.6       100012        100022       
0.0007        99978.5       99997.4       100012        100021       
0.00071       99978.4       99997         100012        100021       
0.00072       99976.5       99995.5       100012        100022       
0.00073       99972.9       99993         100012        100023       
0.00074       99967.7       99989.6       100011        100025       
0.00075       99961.1       99985.4       100010        100028       
0.00076       99953.3       99980.6       100010        100030       
0.00077       99944.6       99975.4       100009        100033       
0.00078       99935.2       99969.9       100009        100036       
0.00079       99925.4       99964.3       100008        100040       
0.0008        99915.4       99958.9       100008        100043       
0.00081       99905.8       99953.7       100008        100046       
0.00082       99896.8       99948.9       100008        100049       
0.00083       99889         99944.6       100008        100052       
0.00084       99882.6       99941.1       100008        100054       
0.00085       99877.8       99938.3       100008        100056       
0.00086       99875         99936.4       100008        100057       
0.00087       99874.5       99935.5       100008        100058       
0.00088       99877         99935.7       100008        100058       
0.00089       99882.3       99937.1       100008        100058       
0.0009        99889.2       99939.6       100009        100057       
0.00091       99896         99943.5       100009        100056       
0.00092       99903.8       99948.5       100010        100054       
0.00093       99915.6       99954.6       100010        100053       
0.00094       99931         99961.5       100012        100050       
0.00095       99944.1       99969         100013        100048       
0.00096       99949         99976.9       100015        100046       
0.00097       99946.1       99984.8       100017        100044       
0.00098       99941.8       99992.3       100019        100042       
0.00099       99941.2       99998.1       100022        100040       
0.001         99945         100002        100024        100039       
0.00101       99951         100002        100027        100038       
0.00102       99956.5       100000        100028        100038       
0.00103       99959.9       99996.9       100029        100039       
0.00104       99961         99993         100029        100040       
0.00105       99960.6       99989.5       100027        100041       
0.00106       99959.6       99986.6       100024        100043       
0.00107       99958.2       99984.3       100021        100044       
0.00108       99956.2       99982.3       100018        100046       
0.00109       99953.4       99980.2       100015        100047       
0.0011        99949.4       99978.1       100014        100048       
0.00111       99944.1       99975.6       100013        100049       
0.00112       99937.5       99972.8       100013        100051       
0.00113       99930.4       99969.8       100014        100052       
0.00114       99923.2       99966.9       100016        100054       
0.00115       99916.5       99964.2       100017        100056       
0.00116       99910.6       99961.8       100019        100058       
0.00117       99905.9       99960         100021        100060       
0.00118       99902.4       99958.8       100022        100061       
0.00119       99900         99958.2       100023        100062       
0.0012        99898.9       99958.4       100023        100063       
0.00121       99899.3       99959.1       100023        100062       
0.00122       99901.2       99960.4       100023        100062       
0.00123       99904.5       99962.1       100022        100061       
0.00124       99909         99964.2       100022        100060       
0.00125       99914.5       99966.6       100021        100059       
0.00126       99920.7       99969.2       100020        100057       
0.00127       99927.3       99971.9       100020        100056       
0.00128       99934         99974.8       100020        100055       
0.00129       99940.6       99977.6       100020        100053       
0.0013        99946.6       99980.3       100020        100052       
0.00131       99951.7       99983         100021        100051       
0.00132       99955.9       99985.6       100022        100049       
0.00133       99959.4       99988.1       100023        100048       
0.00134       99961.9       99990.3       100023        100047       
0.00135       99963.1       99992.3       100024        100047       
0.00136       99963.4       99993.9       100025        100046       
0.00137       99963         99995         100026        100046       
0.00138       99962.2       99995.6       100026        100046       
0.00139       99960.8       99995.5       100027        100046       
0.0014        99958.8       99994.7       100027        100047       
0.00141       99956.4       99993.3       100027        100048       
0.00142       99953.8       99991.3       100027        100049       
0.00143       99951         99988.7       100026        100050       
0.00144       99947.8       99985.8       100026        100052       
0.00145       99944.3       99982.7       100025        100053       
0.00146       99940.6       99979.7       100024        100055       
0.00147       99936.8       99976.7       100023        100057       
0.00148       99932.9       99974         100023        100058       
0.00149       99929         99971.7       100022        100060       
0.0015        99925.2       99969.7       100022        100061       
0.00151       99921.7       99968.2       100022        100062       
0.00152       99918.9       99967.2       100023        100063       
0.00153       99916.7       99966.6       100023        100064       
0.00154       99915.2       99966.4       100024        100064       
0.00155       99914.5       99966.6       100024        100064       
0.00156       99914.5       99967.3       100025        100064       
0.00157       99915.5       99968.4       100026        100064       
0.00158       99917.4       99969.8       100026        100064       
0.00159       99920.1       99971.5       100026        100063       
0.0016        99923.7       99973.5       100027        100062       
0.00161       99927.9       99975.7       100027        100061       
0.00162       99932.6       99978         100027        100060       
0.00163       99937.3       99980.4       100027        100059       
0.00164       99942.1       99982.8       100027        100058       
0.00165       99946.7       99985.2       100027        100056       
0.00166       99951         99987.5       100027        100055       
0.00167       99954.8       99989.6       100027        100054       
0.00168       99958.1       99991.5       100027        100054       
0.00169       99960.9       99993.1       100028        100053       
0.0017        99963         99994.3       100028        100052       
0.00171       99964.1       99995.2       100028        100052       
0.00172       99964.2       99995.6       100029        100052       
0.00173       99963.6       99995.7       100029        100052       
0.00174       99962.5       99995.3       100029        100052       
0.00175       99960.9       99994.6       100029        100053       
0.00176       99958.6       99993.5       100029        100054       
0.00177       99955.8       99992         100029        100055       
0.00178       99952.7       99990.3       100029        100056       
0.00179       99949.5       99988.4       100029        100057       
0.0018        99946.3       99986.3       100029        100058       
0.00181       99943.1       99984.2       100029        100059       
0.00182       99939.9       99982.1       100028        100060       
0.00183       99936.8       99980.1       100028        100062       
0.00184       99933.8       99978.3       100028        100063       
0.00185       99931.2       99976.7       100028        100064       
0.00186       99928.9       99975.4       100028        100065       
0.00187       99927.4       99974.5       100028        100065       
0.00188       99926.7       99973.9       100028        100066       
0.00189       99927         99973.6       100028        100066       
0.0019        99928.1       99973.8       100028        100067       
0.00191       99929.4       99974.5       100029        100067       
0.00192       99930.3       99975.7       100029        100066       
0.00193       99930.5       99977.3       100029        100066       
0.00194       99931         99979.2       100030        100066       
0.00195       99932.9       99981.3       100030        100065       
0.00196       99936.5       99983.3       100031        100064       
0.00197       99941.3       99985.2       100031        100063       
0.00198       99946.8       99986.9       100032        100063       
0.00199       99952.6       99988.5       100033        100062       
0.002         99957.9       99990.4       100033        100061       
0.00201       99962.3       99992.6       100033        100060       
0.00202       99965.2       99995         100033        100060       
0.00203       99966         99997.6       100033        100059       
0.00204       99965.1       99999.9       100033        100059       
0.00205       99963.4       100002        100034        100059       
0.00206       99962.4       100003        100035        100059       
0.00207       99962         100003        100035        100059       
0.00208       99961.8       100002        100036        100059       
0.00209       99960.9       99999.8       100037        100060       
0.0021        99959.4       99997.5       100037        100061       
0.00211       99957.4       99995.1       100037        100062       
0.00212       99955.4       99993         100037        100064       
0.00213       99953.4       99991.2       100036        100065       
0.00214       99951.7       99989.6       100035        100066       
0.00215       99950.3       99988.4       100034        100067       
0.00216       99949.2       99987.3       100034        100068       
0.00217       99947.6       99986.5       100034        100069       
0.00218       99945.1       99985.9       100034        100070       
0.00219       99941.6       99985.5       100034        100070       
0.0022        99937.9       99985.3       100034        100071       
0.00221       99935.3       99985.1       100035        100072       
0.00222       99934         99984.8       100036        100072       
0.00223       99933.9       99984.6       100037        100073       
0.00224       99934.5       99984.3       100038        100073       
0.00225       99935.5       99984.3       100038        100073       
0.00226       99936.8       99984.6       100039        100073       
0.00227       99938.6       99985.4       100039        100073       
0.00228       99941.2       99986.7       100039        100073       
0.00229       99944.2       99988.3       100039        100072       
0.0023        99947.4       99990.2       100038        100071       
0.00231       99950.7       99992.3       100038        100071       
0.00232       99954.1       99994.4       100038        100070       
0.00233       99957.9       99996.5       100038        100069       
0.00234       99962.4       99998.4       100038        100068       
0.00235       99967.5       100000        100039        100068       
0.00236       99973.4       100002        100039        100067       
0.00237       99978.5       100003        100040        100067       
0.00238       99980.4       100005        100041        100067       
0.00239       99978.2       100007        100041        100067       
0.0024        99973.8       100009        100042        100067       
0.00241       99970.4       100010        100043        100067       
0.00242       99969.4       100011        100044        100068       
0.00243       99969.9       100010        100045        100068       
0.00244       99970.2       100009        100046        100069       
0.00245       99968.8       100007        100046        100070       
0.00246       99965.6       100005        100047        100071       
0.00247       99961.3       100003        100047        100073       
0.00248       99957.2       100001        100046        100074       
0.00249       99954.1       99999.3       100045        100075       
0.0025        99952.1       99997.6       100044        100077       
0.00251       99950.8       99995.9       100044        100078       
0.00252       99949.7       99994         100043        100079       
0.00253       99948.4       99992.3       100043        100080       
0.00254       99947         99990.9       100043        100081       
0.00255       99945.6       99989.9       100043        100081       
0.00256       99944.6       99989.5       100043        100082       
0.00257       99944.3       99989.7       100043        100082       
0.00258       99944.7       99990.3       100044        100083       
0.00259       99946.1       99991.5       100044        100083       
0.0026        99948.1       99993         100045        100083       
0.00261       99950.2       99994.8       100046        100082       
0.00262       99951.8       99996.9       100047        100082       
0.00263       99953         99999.2       100048        100081       
0.00264       99954.5       100002        100049        100080       
0.00265       99956.8       100004        100049        100080       
0.00266       99960.1       100006        100050        100079       
0.00267       99963.8       100008        100050        100078       
0.00268       99967.8       100009        100051        100078       
0.00269       99971.4       100010        100051        100077       
0.0027        99974.6       100011        100051        100077       
0.00271       99977.4       100012        100051        100076       
0.00272       99979.6       100013        100050        100076       
0.00273       99981.3       100014        100050        100076       
0.00274       99982.4       100014        100050        100076       
0.00275       99982.7       100014        100050        100076       
0.00276       99982.3       100014        100050        100076       
0.00277       99981.2       100014        100050        100077       
0.00278       99979.6       100014        100051        100077       
0.00279       99977.4       100013        100051        100078       
0.0028        99974.9       100012        100052        100079       
0.00281       99972.2       100011        100052        100080       
0.00282       99969.5       100010        100052        100081       
0.00283       99966.7       100008        100053        100082       
0.00284       99964.2       100007        100053        100083       
0.00285       99961.8       100006        100053        100084       
0.00286       99959.7       100005        100053        100085       
0.00287       99958         100003        100053        100086       
0.00288       99956.7       100003        100053        100087       
0.00289       99955.8       100002        100053        100087       
0.0029        99955.2       100001        100052        100088       
0.00291       99955.1       100001        100052        100088       
0.00292       99955.4       100001        100052        100089       
0.00293       99956.2       100002        100053        100089       
0.00294       99957.3       100002        100053        100089       
0.00295       99958.7       100003        100053        100089       
0.00296       99960.4       100004        100054        100088       
0.00297       99962.3       100006        100054        100088       
0.00298       99964.4       100007        100055        100088       
0.00299       99966.6       100009        100055        100087       
0.003         99968.9       100010        100056        100087       
0.00301       99971.3       100012        100056        100086       
0.00302       99973.6       100014        100056        100086       
0.00303       99975.9       100015        100057        100085       
0.00304       99978.2       100017        100057        100085       
0.00305       99980.3       100018        100057        100084       
0.00306       99982.2       100019        100058        100084       
0.00307       99983.8       100020        100058        100084       
0.00308       99984.8       100020        100058        100084       
0.00309       99985.3       100021        100058        100084       
0.0031        99985.3       100021        100058        100084       
0.00311       99985.1       100021        100058        100085       
0.00312       99984.5       100020        100058        100085       
0.00313       99983.6       100020        100059        100086       
0.00314       99982.4       100019        100059        100086       
0.00315       99980.9       100018        100059        100087       
0.00316       99979.1       100017        100059        100088       
0.00317       99977.2       100016        100059        100089       
0.00318       99975.2       100015        100059        100089       
0.00319       99973.3       100014        100059        100090       
0.0032        99971.4       100013        100059        100091       
0.00321       99969.7       100012        100059        100092       
0.00322       99968.2       100012        100060        100093       
0.00323       99966.9       100011        100060        100093       
0.00324       99966.1       100011        100060        100094       
0.00325       99965.7       100011        100060        100094       
0.00326       99965.7       100011        100060        100095       
0.00327       99966.3       100011        100061        100095       
0.00328       99967.3       100011        100061        100095       
0.00329       99968.7       100012        100061        100095       
0.0033        99970.1       100013        100061        100095       
0.00331       99971.3       100014        100062        100095       
0.00332       99972.3       100015        100062        100095       
0.00333       99973.4       100017        100062        100095       
0.00334       99975         100018        100063        100094       
0.00335       99977         100019        100063        100094       
0.00336       99979.2       100020        100064        100094       
0.00337       99981.3       100021        100064        100093       
0.00338       99983.1       100022        100065        100093       
0.00339       99984.7       100023        100065        100093       
0.0034        99986.2       100024        100065        100093       
0.00341       99987.5       100025        100065        100093       
0.00342       99988.7       100025        100065        100093       
0.00343       99989.7       100026        100065        100093       
0.00344       99990.3       100026        100065        100093       
0.00345       99990.7       100026        100066        100093       
0.00346       99990.7       100027        100066        100093       
0.00347       99990.5       100026        100066        100094       
0.00348       99990         100026        100066        100094       
0.00349       99989.5       100026        100066        100095       
0.0035        99989         100025        100067        100095       
0.00351       99988.5       100025        100067        100096       
0.00352       99987.7       100025        100067        100097       
0.00353       99986.3       100024        100067        100097       
0.00354       99984.3       100024        100068        100098       
0.00355       99982.1       100024        100068        100099       
0.00356       99979.9       100023        100068        100099       
0.00357       99978.1       100023        100069        100100       
0.00358       99976.9       100023        100069        100101       
0.00359       99976.3       100022        100069        100101       
0.0036        99976.1       100021        100070        100102       
0.00361       99976.3       100021        100070        100102       
0.00362       99976.7       100021        100070        100103       
0.00363       99977.3       100021        100070        100103       
0.00364       99978.3       100021        100070        100103       
0.00365       99979.7       100021        100070        100104       
0.00366       99981.3       100022        100070        100104       
0.00367       99983.1       100023        100070        100104       
0.00368       99984.8       100025        100070        100103       
0.00369       99986.1       100026        100071        100103       
0.0037        99987         100027        100071        100103       
0.00371       99987.8       100029        100072        100103       
0.00372       99988.7       100030        100072        100102       
0.00373       99990         100031        100073        100102       
0.00374       99991.5       100032        100074        100102       
0.00375       99992.9       100033        100074        100102       
0.00376       99994.2       100033        100075        100102       
0.00377       99995.3       100034        100075        100102       
0.00378       99996.1       100034        100075        100102       
0.00379       99996.8       100034        100075        100103       
0.0038        99997.3       100035        100075        100103       
0.00381       99997.7       100035        100075        100103       
0.00382       99997.8       100035        100075        100103       
0.00383       99997.7       100035        100075        100104       
0.00384       99997.4       100035        100075        100104       
0.00385       99996.8       100034        100075        100104       
0.00386       99996.1       100034        100076        100105       
0.00387       99995.2       100034        100076        100106       
0.00388       99994.2       100033        100076        100106       
0.00389       99993.1       100033        100076        100107       
0.0039        99992.2       100032        100077        100108       
0.00391       99991.3       100032        100077        100108       
0.00392       99990.7       100032        100077        100109       
0.00393       99990.3       100031        100078        100109       
0.00394       99990.1       100031        100078        100110       
0.00395       99989.8       100032        100078        100110       
0.00396       99989.4       100032        100079        100111       
0.00397       99989         100032        100079        100111       
0.00398       99988.8       100033        100079        100111       
0.00399       99989.2       100033        100079        100111       
0.004         99990.3       100034        100080        100112       
0.00401       99991.9       100034        100080        100112       
0.00402       99993.8       100035        100080        100112       
0.00403       99995.9       100035        100081        100112       
0.00404       99997.7       100036        100081        100112       
0.00405       99999.1       100037        100081        100112       
0.00406       100000        100038        100081        100112       
0.00407       100002        100039        100082        100112       
0.00408       100003        100040        100082        100112       
0.00409       100004        100042        100082        100112       
0.0041        100005        100043        100083        100112       
0.00411       100004        100044        100084        100112       
0.00412       100004        100044        100084        100112       
0.00413       100003        100045        100085        100112       
0.00414       100004        100045        100086        100113       
0.00415       100004        100044        100086        100113       
0.00416       100005        100044        100086        100114       
0.00417       100005        100044        100086        100114       
0.00418       100005        100043        100086        100115       
0.00419       100004        100043        100086        100115       
0.0042        100003        100043        100086        100116       
0.00421       100002        100043        100086        100116       
0.00422       100002        100043        100086        100117       
0.00423       100001        100042        100086        100117       
0.00424       100001        100042        100086        100118       