# Probe 0 (0.015 0 -0.00336)
# Probe 1 (0.03 0 -0.00672)
# Probe 2 (0.045 0 -0.01008)
# Probe 3 (0.06 0 -0.01344)
# Time        0             1             2             3            
0             323           323           323           323          
1e-05         323           323           323           323          
2e-05         322.998       322.999       323           323.001      
3e-05         322.994       322.997       323           323.002      
4e-05         322.989       322.993       323           323.004      
5e-05         322.982       322.988       323           323.006      
6e-05         322.973       322.983       323           323.01       
7e-05         322.96        322.977       322.999       323.014      
8e-05         322.946       322.97        322.999       323.018      
9e-05         322.93        322.963       322.998       323.022      
0.0001        322.915       322.956       322.998       323.027      
0.00011       322.901       322.948       322.997       323.031      
0.00012       322.888       322.94        322.997       323.036      
0.00013       322.876       322.933       322.997       323.039      
0.00014       322.865       322.926       322.997       323.043      
0.00015       322.856       322.921       322.996       323.046      
0.00016       322.85        322.916       322.996       323.048      
0.00017       322.845       322.913       322.995       323.05       
0.00018       322.843       322.912       322.995       323.051      
0.00019       322.843       322.912       322.994       323.051      
0.0002        322.846       322.913       322.994       323.051      
0.00021       322.851       322.916       322.994       323.049      
0.00022       322.859       322.921       322.995       323.048      
0.00023       322.87        322.926       322.995       323.045      
0.00024       322.883       322.932       322.996       323.042      
0.00025       322.896       322.94        322.998       323.039      
0.00026       322.905       322.948       322.999       323.036      
0.00027       322.913       322.956       323           323.032      
0.00028       322.922       322.965       323.002       323.029      
0.00029       322.932       322.973       323.003       323.026      
0.0003        322.945       322.979       323.005       323.022      
0.00031       322.958       322.985       323.006       323.019      
0.00032       322.969       322.989       323.008       323.017      
0.00033       322.978       322.992       323.008       323.015      
0.00034       322.983       322.994       323.008       323.014      
0.00035       322.986       322.996       323.008       323.013      
0.00036       322.988       322.997       323.007       323.012      
0.00037       322.988       322.997       323.006       323.012      
0.00038       322.987       322.996       323.005       323.013      
0.00039       322.983       322.994       323.004       323.014      
0.0004        322.978       322.991       323.004       323.016      
0.00041       322.971       322.987       323.004       323.018      
0.00042       322.962       322.982       323.004       323.02       
0.00043       322.952       322.976       323.004       323.023      
0.00044       322.94        322.97        323.004       323.027      
0.00045       322.927       322.964       323.004       323.03       
0.00046       322.915       322.958       323.004       323.034      
0.00047       322.904       322.952       323.004       323.038      
0.00048       322.895       322.947       323.003       323.041      
0.00049       322.887       322.942       323.003       323.044      
0.0005        322.88        322.937       323.003       323.046      
0.00051       322.874       322.934       323.003       323.048      
0.00052       322.87        322.932       323.003       323.05       
0.00053       322.868       322.931       323.002       323.051      
0.00054       322.867       322.931       323.002       323.052      
0.00055       322.869       322.932       323.002       323.052      
0.00056       322.874       322.934       323.002       323.051      
0.00057       322.88        322.937       323.002       323.05       
0.00058       322.887       322.94        323.003       323.048      
0.00059       322.895       322.945       323.003       323.046      
0.0006        322.904       322.95        323.004       323.043      
0.00061       322.914       322.955       323.005       323.041      
0.00062       322.923       322.961       323.006       323.038      
0.00063       322.933       322.967       323.007       323.035      
0.00064       322.943       322.973       323.007       323.032      
0.00065       322.952       322.979       323.008       323.029      
0.00066       322.96        322.984       323.009       323.026      
0.00067       322.967       322.989       323.01        323.024      
0.00068       322.973       322.993       323.01        323.022      
0.00069       322.977       322.995       323.011       323.02       
0.0007        322.98        322.997       323.011       323.019      
0.00071       322.982       322.998       323.011       323.019      
0.00072       322.982       322.998       323.011       323.019      
0.00073       322.98        322.996       323.011       323.02       
0.00074       322.977       322.994       323.011       323.021      
0.00075       322.972       322.991       323.01        323.023      
0.00076       322.966       322.987       323.01        323.025      
0.00077       322.959       322.983       323.009       323.027      
0.00078       322.951       322.978       323.009       323.03       
0.00079       322.943       322.973       323.008       323.033      
0.0008        322.934       322.968       323.008       323.036      
0.00081       322.925       322.963       323.007       323.038      
0.00082       322.916       322.959       323.007       323.041      
0.00083       322.908       322.955       323.007       323.044      
0.00084       322.901       322.951       323.007       323.046      
0.00085       322.896       322.948       323.007       323.048      
0.00086       322.891       322.945       323.007       323.05       
0.00087       322.889       322.943       323.007       323.051      
0.00088       322.888       322.943       323.007       323.052      
0.00089       322.891       322.943       323.008       323.052      
0.0009        322.896       322.944       323.008       323.052      
0.00091       322.902       322.946       323.008       323.051      
0.00092       322.908       322.95        323.008       323.05       
0.00093       322.915       322.954       323.009       323.049      
0.00094       322.925       322.96        323.01        323.047      
0.00095       322.939       322.966       323.011       323.045      
0.00096       322.951       322.973       323.012       323.043      
0.00097       322.955       322.98        323.014       323.041      
0.00098       322.953       322.987       323.015       323.039      
0.00099       322.949       322.993       323.018       323.038      
0.001         322.948       322.999       323.02        323.036      
0.00101       322.952       323.002       323.022       323.035      
0.00102       322.957       323.002       323.024       323.035      
0.00103       322.962       323           323.026       323.034      
0.00104       322.965       322.997       323.026       323.035      
0.00105       322.966       322.994       323.026       323.036      
0.00106       322.966       322.991       323.024       323.037      
0.00107       322.965       322.988       323.022       323.038      
0.00108       322.963       322.986       323.019       323.04       
0.00109       322.962       322.984       323.016       323.041      
0.0011        322.959       322.983       323.014       323.042      
0.00111       322.956       322.981       323.012       323.043      
0.00112       322.951       322.978       323.012       323.044      
0.00113       322.945       322.976       323.012       323.045      
0.00114       322.939       322.973       323.013       323.047      
0.00115       322.932       322.971       323.014       323.049      
0.00116       322.926       322.968       323.016       323.051      
0.00117       322.921       322.966       323.017       323.052      
0.00118       322.917       322.965       323.019       323.054      
0.00119       322.913       322.963       323.02        323.055      
0.0012        322.911       322.963       323.021       323.056      
0.00121       322.91        322.963       323.021       323.056      
0.00122       322.911       322.964       323.021       323.056      
0.00123       322.912       322.965       323.021       323.056      
0.00124       322.915       322.967       323.02        323.055      
0.00125       322.919       322.968       323.02        323.054      
0.00126       322.924       322.971       323.019       323.053      
0.00127       322.93        322.973       323.019       323.052      
0.00128       322.936       322.975       323.018       323.051      
0.00129       322.942       322.978       323.018       323.049      
0.0013        322.948       322.98        323.018       323.048      
0.00131       322.953       322.983       323.019       323.047      
0.00132       322.958       322.985       323.019       323.046      
0.00133       322.962       322.987       323.02        323.045      
0.00134       322.965       322.99        323.02        323.043      
0.00135       322.967       322.992       323.021       323.043      
0.00136       322.968       322.993       323.022       323.042      
0.00137       322.968       322.995       323.023       323.042      
0.00138       322.968       322.996       323.023       323.041      
0.00139       322.967       322.996       323.024       323.041      
0.0014        322.966       322.996       323.024       323.042      
0.00141       322.964       322.996       323.024       323.042      
0.00142       322.962       322.994       323.024       323.043      
0.00143       322.96        322.993       323.024       323.044      
0.00144       322.957       322.99        323.024       323.045      
0.00145       322.954       322.988       323.023       323.047      
0.00146       322.951       322.985       323.022       323.048      
0.00147       322.948       322.982       323.022       323.049      
0.00148       322.944       322.98        323.021       323.051      
0.00149       322.941       322.977       323.021       323.052      
0.0015        322.937       322.975       323.02        323.054      
0.00151       322.934       322.973       323.02        323.055      
0.00152       322.931       322.972       323.02        323.056      
0.00153       322.928       322.971       323.02        323.057      
0.00154       322.926       322.97        323.021       323.057      
0.00155       322.925       322.97        323.021       323.058      
0.00156       322.924       322.971       323.022       323.058      
0.00157       322.924       322.971       323.023       323.058      
0.00158       322.925       322.972       323.023       323.058      
0.00159       322.927       322.973       323.023       323.057      
0.0016        322.929       322.975       323.024       323.057      
0.00161       322.933       322.977       323.024       323.056      
0.00162       322.936       322.979       323.024       323.055      
0.00163       322.941       322.981       323.024       323.054      
0.00164       322.945       322.983       323.024       323.053      
0.00165       322.949       322.985       323.024       323.052      
0.00166       322.953       322.987       323.024       323.051      
0.00167       322.957       322.989       323.024       323.05       
0.00168       322.961       322.991       323.024       323.049      
0.00169       322.964       322.993       323.025       323.048      
0.0017        322.966       322.994       323.025       323.048      
0.00171       322.968       322.995       323.025       323.047      
0.00172       322.969       322.996       323.026       323.047      
0.00173       322.969       322.996       323.026       323.047      
0.00174       322.968       322.996       323.026       323.047      
0.00175       322.967       322.996       323.026       323.047      
0.00176       322.966       322.995       323.026       323.048      
0.00177       322.964       322.994       323.027       323.048      
0.00178       322.961       322.993       323.027       323.049      
0.00179       322.959       322.992       323.026       323.05       
0.0018        322.956       322.99        323.026       323.051      
0.00181       322.953       322.988       323.026       323.052      
0.00182       322.95        322.986       323.026       323.053      
0.00183       322.947       322.984       323.026       323.054      
0.00184       322.944       322.982       323.025       323.055      
0.00185       322.942       322.981       323.025       323.057      
0.00186       322.939       322.979       323.025       323.057      
0.00187       322.937       322.978       323.025       323.058      
0.00188       322.936       322.977       323.025       323.059      
0.00189       322.935       322.977       323.025       323.059      
0.0019        322.936       322.977       323.025       323.06       
0.00191       322.937       322.977       323.025       323.06       
0.00192       322.938       322.977       323.026       323.06       
0.00193       322.939       322.979       323.026       323.06       
0.00194       322.939       322.98        323.026       323.06       
0.00195       322.939       322.982       323.027       323.059      
0.00196       322.941       322.984       323.027       323.059      
0.00197       322.944       322.985       323.028       323.058      
0.00198       322.949       322.987       323.028       323.057      
0.00199       322.954       322.988       323.029       323.056      
0.002         322.959       322.99        323.029       323.056      
0.00201       322.963       322.992       323.029       323.055      
0.00202       322.967       322.994       323.03        323.055      
0.00203       322.97        322.996       323.03        323.054      
0.00204       322.971       322.998       323.03        323.054      
0.00205       322.97        323           323.03        323.053      
0.00206       322.968       323.002       323.03        323.053      
0.00207       322.967       323.003       323.031       323.053      
0.00208       322.967       323.003       323.032       323.053      
0.00209       322.967       323.002       323.033       323.054      
0.0021        322.966       323           323.033       323.054      
0.00211       322.965       322.998       323.034       323.055      
0.00212       322.963       322.996       323.034       323.056      
0.00213       322.961       322.994       323.033       323.057      
0.00214       322.96        322.992       323.032       323.059      
0.00215       322.958       322.991       323.032       323.06       
0.00216       322.957       322.99        323.031       323.061      
0.00217       322.956       322.989       323.03        323.061      
0.00218       322.954       322.988       323.03        323.062      
0.00219       322.952       322.988       323.03        323.063      
0.0022        322.949       322.987       323.03        323.063      
0.00221       322.946       322.987       323.031       323.064      
0.00222       322.943       322.987       323.031       323.065      
0.00223       322.942       322.987       323.032       323.065      
0.00224       322.942       322.986       323.033       323.066      
0.00225       322.943       322.986       323.034       323.066      
0.00226       322.944       322.986       323.034       323.066      
0.00227       322.945       322.986       323.035       323.066      
0.00228       322.946       322.987       323.035       323.066      
0.00229       322.949       322.988       323.035       323.066      
0.0023        322.951       322.99        323.035       323.065      
0.00231       322.954       322.991       323.034       323.064      
0.00232       322.957       322.993       323.034       323.064      
0.00233       322.96        322.995       323.034       323.063      
0.00234       322.964       322.997       323.034       323.062      
0.00235       322.968       322.999       323.034       323.062      
0.00236       322.972       323           323.035       323.061      
0.00237       322.978       323.002       323.035       323.061      
0.00238       322.982       323.003       323.036       323.06       
0.00239       322.984       323.005       323.036       323.06       
0.0024        322.982       323.006       323.037       323.06       
0.00241       322.978       323.008       323.038       323.06       
0.00242       322.975       323.009       323.038       323.061      
0.00243       322.974       323.01        323.039       323.061      
0.00244       322.974       323.009       323.04        323.062      
0.00245       322.975       323.008       323.041       323.062      
0.00246       322.974       323.006       323.042       323.063      
0.00247       322.971       323.004       323.042       323.064      
0.00248       322.967       323.003       323.042       323.066      
0.00249       322.963       323.001       323.041       323.067      
0.0025        322.96        322.999       323.041       323.068      
0.00251       322.959       322.998       323.04        323.069      
0.00252       322.957       322.996       323.039       323.07       
0.00253       322.956       322.995       323.039       323.071      
0.00254       322.955       322.993       323.039       323.072      
0.00255       322.954       322.992       323.039       323.073      
0.00256       322.953       322.991       323.039       323.073      
0.00257       322.952       322.991       323.039       323.074      
0.00258       322.952       322.991       323.039       323.074      
0.00259       322.952       322.991       323.039       323.075      
0.0026        322.953       322.992       323.04        323.075      
0.00261       322.955       322.994       323.041       323.075      
0.00262       322.957       322.995       323.041       323.074      
0.00263       322.958       322.997       323.042       323.074      
0.00264       322.96        322.999       323.043       323.073      
0.00265       322.961       323.001       323.044       323.073      
0.00266       322.963       323.003       323.044       323.072      
0.00267       322.966       323.005       323.045       323.071      
0.00268       322.969       323.007       323.045       323.071      
0.00269       322.973       323.008       323.045       323.07       
0.0027        322.976       323.009       323.045       323.07       
0.00271       322.979       323.01        323.045       323.069      
0.00272       322.981       323.011       323.045       323.069      
0.00273       322.983       323.012       323.045       323.069      
0.00274       322.985       323.012       323.045       323.069      
0.00275       322.986       323.013       323.045       323.069      
0.00276       322.986       323.013       323.045       323.069      
0.00277       322.986       323.013       323.045       323.069      
0.00278       322.985       323.013       323.045       323.069      
0.00279       322.983       323.012       323.045       323.07       
0.0028        322.981       323.012       323.046       323.071      
0.00281       322.979       323.011       323.046       323.071      
0.00282       322.977       323.01        323.046       323.072      
0.00283       322.974       323.009       323.047       323.073      
0.00284       322.972       323.007       323.047       323.074      
0.00285       322.97        323.006       323.047       323.075      
0.00286       322.968       323.005       323.047       323.076      
0.00287       322.966       323.004       323.047       323.077      
0.00288       322.964       323.003       323.047       323.078      
0.00289       322.963       323.002       323.047       323.078      
0.0029        322.962       323.002       323.047       323.079      
0.00291       322.962       323.001       323.047       323.08       
0.00292       322.962       323.001       323.047       323.08       
0.00293       322.962       323.001       323.047       323.08       
0.00294       322.963       323.002       323.047       323.08       
0.00295       322.964       323.002       323.047       323.08       
0.00296       322.965       323.003       323.047       323.08       
0.00297       322.966       323.004       323.048       323.08       
0.00298       322.968       323.005       323.048       323.08       
0.00299       322.97        323.006       323.049       323.079      
0.003         322.972       323.008       323.049       323.079      
0.00301       322.974       323.009       323.05        323.078      
0.00302       322.976       323.011       323.05        323.078      
0.00303       322.978       323.012       323.05        323.077      
0.00304       322.98        323.014       323.051       323.077      
0.00305       322.982       323.015       323.051       323.077      
0.00306       322.984       323.016       323.051       323.076      
0.00307       322.986       323.017       323.051       323.076      
0.00308       322.987       323.018       323.052       323.076      
0.00309       322.988       323.018       323.052       323.076      
0.0031        322.989       323.018       323.052       323.076      
0.00311       322.989       323.019       323.052       323.076      
0.00312       322.989       323.018       323.052       323.077      
0.00313       322.988       323.018       323.052       323.077      
0.00314       322.987       323.018       323.052       323.077      
0.00315       322.986       323.017       323.052       323.078      
0.00316       322.985       323.016       323.052       323.079      
0.00317       322.983       323.015       323.052       323.079      
0.00318       322.982       323.014       323.053       323.08       
0.00319       322.98        323.013       323.053       323.081      
0.0032        322.978       323.013       323.053       323.082      
0.00321       322.976       323.012       323.053       323.082      
0.00322       322.975       323.011       323.053       323.083      
0.00323       322.974       323.011       323.053       323.084      
0.00324       322.972       323.01        323.053       323.084      
0.00325       322.972       323.01        323.053       323.085      
0.00326       322.971       323.01        323.054       323.085      
0.00327       322.971       323.009       323.054       323.086      
0.00328       322.972       323.01        323.054       323.086      
0.00329       322.973       323.01        323.054       323.086      
0.0033        322.974       323.011       323.054       323.086      
0.00331       322.975       323.011       323.055       323.086      
0.00332       322.976       323.012       323.055       323.086      
0.00333       322.977       323.014       323.055       323.086      
0.00334       322.978       323.015       323.055       323.086      
0.00335       322.98        323.016       323.056       323.085      
0.00336       322.982       323.017       323.056       323.085      
0.00337       322.984       323.018       323.057       323.085      
0.00338       322.985       323.019       323.057       323.084      
0.00339       322.987       323.02        323.057       323.084      
0.0034        322.989       323.021       323.058       323.084      
0.00341       322.99        323.021       323.058       323.084      
0.00342       322.991       323.022       323.058       323.084      
0.00343       322.992       323.023       323.058       323.084      
0.00344       322.993       323.023       323.058       323.084      
0.00345       322.994       323.023       323.058       323.084      
0.00346       322.994       323.024       323.058       323.084      
0.00347       322.994       323.024       323.058       323.084      
0.00348       322.994       323.024       323.059       323.085      
0.00349       322.993       323.023       323.059       323.085      
0.0035        322.993       323.023       323.059       323.086      
0.00351       322.992       323.023       323.059       323.086      
0.00352       322.992       323.022       323.059       323.087      
0.00353       322.991       323.022       323.06        323.088      
0.00354       322.99        323.022       323.06        323.088      
0.00355       322.988       323.021       323.06        323.089      
0.00356       322.986       323.021       323.06        323.089      
0.00357       322.984       323.021       323.061       323.09       
0.00358       322.983       323.021       323.061       323.091      
0.00359       322.982       323.02        323.061       323.091      
0.0036        322.981       323.02        323.062       323.092      
0.00361       322.981       323.019       323.062       323.092      
0.00362       322.981       323.019       323.062       323.093      
0.00363       322.982       323.018       323.062       323.093      
0.00364       322.982       323.018       323.062       323.093      
0.00365       322.983       323.019       323.062       323.094      
0.00366       322.984       323.019       323.062       323.094      
0.00367       322.986       323.02        323.062       323.094      
0.00368       322.987       323.021       323.062       323.094      
0.00369       322.989       323.022       323.062       323.094      
0.0037        322.99        323.023       323.063       323.093      
0.00371       322.991       323.024       323.063       323.093      
0.00372       322.992       323.026       323.064       323.093      
0.00373       322.992       323.027       323.064       323.093      
0.00374       322.994       323.028       323.065       323.093      
0.00375       322.995       323.029       323.066       323.093      
0.00376       322.996       323.029       323.066       323.093      
0.00377       322.997       323.03        323.067       323.093      
0.00378       322.998       323.03        323.067       323.093      
0.00379       322.999       323.03        323.067       323.093      
0.0038        323           323.031       323.067       323.093      
0.00381       323           323.031       323.067       323.093      
0.00382       323.001       323.031       323.067       323.093      
0.00383       323.001       323.031       323.067       323.094      
0.00384       323.001       323.031       323.067       323.094      
0.00385       323           323.031       323.067       323.094      
0.00386       323           323.031       323.067       323.095      
0.00387       322.999       323.03        323.067       323.095      
0.00388       322.998       323.03        323.067       323.096      
0.00389       322.998       323.03        323.068       323.096      
0.0039        322.997       323.029       323.068       323.097      
0.00391       322.996       323.029       323.068       323.097      
0.00392       322.995       323.028       323.068       323.098      
0.00393       322.995       323.028       323.069       323.099      
0.00394       322.994       323.028       323.069       323.099      
0.00395       322.994       323.028       323.069       323.099      
0.00396       322.994       323.028       323.069       323.1        
0.00397       322.993       323.029       323.07        323.1        
0.00398       322.993       323.029       323.07        323.1        
0.00399       322.993       323.029       323.07        323.101      
0.004         322.993       323.03        323.07        323.101      
0.00401       322.994       323.03        323.071       323.101      
0.00402       322.996       323.031       323.071       323.101      
0.00403       322.997       323.031       323.071       323.101      
0.00404       322.999       323.031       323.072       323.101      
0.00405       323.001       323.032       323.072       323.101      
0.00406       323.002       323.033       323.072       323.101      
0.00407       323.003       323.034       323.072       323.101      
0.00408       323.005       323.035       323.072       323.101      
0.00409       323.006       323.036       323.073       323.101      
0.0041        323.007       323.037       323.073       323.101      
0.00411       323.007       323.038       323.074       323.101      
0.00412       323.007       323.039       323.074       323.101      
0.00413       323.006       323.04        323.075       323.102      
0.00414       323.006       323.04        323.075       323.102      
0.00415       323.007       323.04        323.076       323.102      
0.00416       323.007       323.04        323.076       323.103      
0.00417       323.008       323.039       323.077       323.103      
0.00418       323.008       323.039       323.077       323.103      
0.00419       323.008       323.039       323.077       323.104      
0.0042        323.007       323.039       323.077       323.105      
0.00421       323.006       323.038       323.076       323.105      
0.00422       323.005       323.038       323.076       323.105      
0.00423       323.005       323.038       323.076       323.106      
0.00424       323.005       323.038       323.076       323.106      