# Region      : cellZone ignition
# Cells       : 1
# Volume      : 2.655875e-09
# Time        	volAverage(T)	volAverage(CH4)
0             	3.230000e+02	5.491516e-02
1e-05         	3.676032e+02	5.491516e-02
2e-05         	4.177227e+02	5.491516e-02
3e-05         	4.726616e+02	5.491516e-02
4e-05         	5.337818e+02	5.491516e-02
5e-05         	6.013068e+02	5.491516e-02
6e-05         	6.753080e+02	5.491516e-02
7e-05         	7.558738e+02	5.491516e-02
8e-05         	8.431324e+02	5.491516e-02
9e-05         	9.372330e+02	5.491516e-02
0.0001        	1.038407e+03	5.491516e-02
0.00011       	1.147099e+03	5.491516e-02
0.00012       	1.263716e+03	5.491515e-02
0.00013       	1.388585e+03	5.491514e-02
0.00014       	1.521372e+03	5.491500e-02
0.00015       	1.662993e+03	5.491366e-02
0.00016       	1.813708e+03	5.490081e-02
0.00017       	1.973450e+03	5.478658e-02
0.00018       	2.141170e+03	5.382918e-02
0.00019       	2.347116e+03	4.344633e-02
0.0002        	3.000000e+03	1.282994e-03
0.00021       	3.000000e+03	1.869689e-03
0.00022       	3.000000e+03	3.402035e-03
0.00023       	3.000000e+03	6.127373e-03
0.00024       	3.000000e+03	4.448701e-03
0.00025       	3.000000e+03	4.351508e-03
0.00026       	3.000000e+03	3.577489e-03
0.00027       	3.000000e+03	4.164854e-03
0.00028       	3.000000e+03	4.204475e-03
0.00029       	3.000000e+03	3.923585e-03
0.0003        	3.000000e+03	4.032391e-03
0.00031       	3.000000e+03	4.249102e-03
0.00032       	3.000000e+03	4.492405e-03
0.00033       	3.000000e+03	5.097797e-03
0.00034       	3.000000e+03	5.109022e-03
0.00035       	3.000000e+03	4.759542e-03
0.00036       	3.000000e+03	4.390163e-03
0.00037       	3.000000e+03	5.512656e-03
0.00038       	3.000000e+03	6.065033e-03
0.00039       	3.000000e+03	6.396303e-03
0.0004        	3.000000e+03	5.767987e-03
0.00041       	3.000000e+03	5.053624e-03
0.00042       	3.000000e+03	4.295871e-03
0.00043       	3.000000e+03	4.093524e-03
0.00044       	3.000000e+03	4.246095e-03
0.00045       	3.000000e+03	4.573837e-03
0.00046       	3.000000e+03	4.323448e-03
0.00047       	3.000000e+03	4.263837e-03
0.00048       	3.000000e+03	3.707118e-03
0.00049       	3.000000e+03	3.591552e-03
0.0005        	3.000000e+03	3.205664e-03
0.00051       	3.000000e+03	3.108411e-03
0.00052       	3.000000e+03	2.870405e-03
0.00053       	3.000000e+03	2.867754e-03
0.00054       	3.000000e+03	2.943744e-03
0.00055       	3.000000e+03	2.970797e-03
0.00056       	3.000000e+03	2.850200e-03
0.00057       	3.000000e+03	2.775800e-03
0.00058       	3.000000e+03	2.870993e-03
0.00059       	3.000000e+03	2.933194e-03
0.0006        	3.000000e+03	2.858075e-03
0.00061       	3.000000e+03	2.819328e-03
0.00062       	3.000000e+03	2.824565e-03
0.00063       	3.000000e+03	2.866221e-03
0.00064       	3.000000e+03	2.844327e-03
0.00065       	3.000000e+03	2.774843e-03
0.00066       	3.000000e+03	2.867100e-03
0.00067       	3.000000e+03	2.886233e-03
0.00068       	3.000000e+03	2.866303e-03
0.00069       	3.000000e+03	2.771165e-03
0.0007        	3.000000e+03	2.836901e-03
0.00071       	3.000000e+03	2.857020e-03
0.00072       	3.000000e+03	2.841078e-03
0.00073       	3.000000e+03	2.724396e-03
0.00074       	3.000000e+03	2.801360e-03
0.00075       	3.000000e+03	2.802828e-03
0.00076       	3.000000e+03	2.758727e-03
0.00077       	3.000000e+03	2.738398e-03
0.00078       	3.000000e+03	2.775979e-03
0.00079       	3.000000e+03	2.764870e-03
0.0008        	3.000000e+03	2.663273e-03
0.00081       	3.000000e+03	2.652409e-03
0.00082       	3.000000e+03	2.729673e-03
0.00083       	3.000000e+03	2.649469e-03
0.00084       	3.000000e+03	2.639214e-03
0.00085       	3.000000e+03	2.591659e-03
0.00086       	3.000000e+03	2.198941e-03
0.00087       	3.000000e+03	1.775855e-03
0.00088       	3.000000e+03	1.518909e-03
0.00089       	3.000000e+03	1.337294e-03
0.0009        	3.000000e+03	1.059385e-03
0.00091       	3.000000e+03	7.535454e-04
0.00092       	3.000000e+03	5.208732e-04
0.00093       	3.000000e+03	4.242355e-04
0.00094       	3.000000e+03	4.194692e-04
0.00095       	3.000000e+03	4.121131e-04
0.00096       	3.000000e+03	3.814136e-04
0.00097       	3.000000e+03	3.431257e-04
0.00098       	3.000000e+03	3.082479e-04
0.00099       	3.000000e+03	2.796107e-04
0.001         	3.000000e+03	2.524998e-04
0.00101       	3.000000e+03	2.311490e-04
0.00102       	3.000000e+03	2.143581e-04
0.00103       	3.000000e+03	2.034545e-04
0.00104       	3.000000e+03	1.937366e-04
0.00105       	3.000000e+03	1.879496e-04
0.00106       	3.000000e+03	1.824142e-04
0.00107       	3.000000e+03	1.803211e-04
0.00108       	3.000000e+03	1.767183e-04
0.00109       	3.000000e+03	1.772131e-04
0.0011        	3.000000e+03	1.768804e-04
0.00111       	3.000000e+03	1.774281e-04
0.00112       	3.000000e+03	1.768763e-04
0.00113       	3.000000e+03	1.783574e-04
0.00114       	3.000000e+03	1.793797e-04
0.00115       	3.000000e+03	1.803993e-04
0.00116       	3.000000e+03	1.808326e-04
0.00117       	3.000000e+03	1.832038e-04
0.00118       	3.000000e+03	1.854684e-04
0.00119       	3.000000e+03	1.912326e-04
0.0012        	3.000000e+03	1.962277e-04
0.00121       	3.000000e+03	1.992465e-04
0.00122       	3.000000e+03	2.027516e-04
0.00123       	3.000000e+03	2.086310e-04
0.00124       	3.000000e+03	2.144460e-04
0.00125       	3.000000e+03	2.196612e-04
0.00126       	3.000000e+03	2.258389e-04
0.00127       	3.000000e+03	2.310930e-04
0.00128       	3.000000e+03	2.368194e-04
0.00129       	3.000000e+03	2.408718e-04
0.0013        	3.000000e+03	2.468516e-04
0.00131       	3.000000e+03	2.571646e-04
0.00132       	3.000000e+03	2.572911e-04
0.00133       	3.000000e+03	2.579952e-04
0.00134       	3.000000e+03	2.626343e-04
0.00135       	3.000000e+03	2.707607e-04
0.00136       	3.000000e+03	2.698113e-04
0.00137       	3.000000e+03	2.735846e-04
0.00138       	3.000000e+03	2.703929e-04
0.00139       	3.000000e+03	2.724001e-04
0.0014        	3.000000e+03	2.711311e-04
0.00141       	3.000000e+03	2.681580e-04
0.00142       	3.000000e+03	2.681586e-04
0.00143       	3.000000e+03	2.688929e-04
0.00144       	3.000000e+03	2.688014e-04
0.00145       	3.000000e+03	2.717415e-04
0.00146       	3.000000e+03	2.688602e-04
0.00147       	3.000000e+03	2.721947e-04
0.00148       	3.000000e+03	2.751780e-04
0.00149       	3.000000e+03	2.812433e-04
0.0015        	3.000000e+03	2.831091e-04
0.00151       	3.000000e+03	2.776484e-04
0.00152       	3.000000e+03	2.736993e-04
0.00153       	3.000000e+03	2.776938e-04
0.00154       	3.000000e+03	2.752446e-04
0.00155       	3.000000e+03	2.683061e-04
0.00156       	3.000000e+03	2.677170e-04
0.00157       	3.000000e+03	2.673919e-04
0.00158       	3.000000e+03	2.653653e-04
0.00159       	3.000000e+03	2.680453e-04
0.0016        	3.000000e+03	2.628012e-04
0.00161       	3.000000e+03	2.610177e-04
0.00162       	3.000000e+03	2.632293e-04
0.00163       	3.000000e+03	2.611917e-04
0.00164       	3.000000e+03	2.563072e-04
0.00165       	3.000000e+03	2.589152e-04
0.00166       	3.000000e+03	2.577083e-04
0.00167       	3.000000e+03	2.584524e-04
0.00168       	3.000000e+03	2.556000e-04
0.00169       	3.000000e+03	2.513309e-04
0.0017        	3.000000e+03	2.532514e-04
0.00171       	3.000000e+03	2.486158e-04
0.00172       	3.000000e+03	2.521602e-04
0.00173       	3.000000e+03	2.463136e-04
0.00174       	3.000000e+03	2.449086e-04
0.00175       	3.000000e+03	2.412206e-04
0.00176       	3.000000e+03	2.372761e-04
0.00177       	3.000000e+03	2.358109e-04
0.00178       	3.000000e+03	2.348496e-04
0.00179       	3.000000e+03	2.333988e-04
0.0018        	3.000000e+03	2.308932e-04
0.00181       	3.000000e+03	2.253592e-04
0.00182       	3.000000e+03	2.222656e-04
0.00183       	3.000000e+03	2.186970e-04
0.00184       	3.000000e+03	2.140242e-04
0.00185       	3.000000e+03	2.111975e-04
0.00186       	3.000000e+03	2.067769e-04
0.00187       	3.000000e+03	2.017389e-04
0.00188       	3.000000e+03	1.949656e-04
0.00189       	3.000000e+03	1.889039e-04
0.0019        	3.000000e+03	1.807594e-04
0.00191       	3.000000e+03	1.812743e-04
0.00192       	3.000000e+03	1.823452e-04
0.00193       	3.000000e+03	1.778188e-04
0.00194       	3.000000e+03	1.730492e-04
0.00195       	3.000000e+03	1.689995e-04
0.00196       	3.000000e+03	1.631746e-04
0.00197       	3.000000e+03	1.557584e-04
0.00198       	3.000000e+03	1.497105e-04
0.00199       	3.000000e+03	1.417738e-04
0.002         	3.000000e+03	1.353860e-04
0.00201       	3.000000e+03	1.318100e-04
0.00202       	3.000000e+03	1.339625e-04
0.00203       	3.000000e+03	1.314289e-04
0.00204       	3.000000e+03	1.284957e-04
0.00205       	3.000000e+03	1.249069e-04
0.00206       	3.000000e+03	1.208032e-04
0.00207       	3.000000e+03	1.181044e-04
0.00208       	3.000000e+03	1.153283e-04
0.00209       	3.000000e+03	1.137768e-04
0.0021        	3.000000e+03	1.108877e-04
0.00211       	3.000000e+03	1.072332e-04
0.00212       	3.000000e+03	1.024283e-04
0.00213       	3.000000e+03	9.716127e-05
0.00214       	3.000000e+03	9.013662e-05
0.00215       	3.000000e+03	8.207879e-05
0.00216       	3.000000e+03	7.444270e-05
0.00217       	3.000000e+03	6.997222e-05
0.00218       	3.000000e+03	6.784181e-05
0.00219       	2.998187e+03	6.665341e-05
0.0022        	2.983196e+03	6.580571e-05
0.00221       	2.967633e+03	6.798289e-05
0.00222       	2.952625e+03	7.018060e-05
0.00223       	2.938181e+03	7.261858e-05
0.00224       	2.924415e+03	7.451211e-05
0.00225       	2.910896e+03	7.638152e-05
0.00226       	2.899314e+03	7.745029e-05
0.00227       	2.888811e+03	7.531387e-05
0.00228       	2.877962e+03	7.411892e-05
0.00229       	2.866989e+03	7.412833e-05
0.0023        	2.856765e+03	7.347993e-05
0.00231       	2.846883e+03	7.243982e-05
0.00232       	2.836941e+03	7.080952e-05
0.00233       	2.825466e+03	6.739541e-05
0.00234       	2.813575e+03	6.702184e-05
0.00235       	2.803720e+03	6.257718e-05
0.00236       	2.795406e+03	6.858921e-05
0.00237       	2.786794e+03	6.942087e-05
0.00238       	2.778146e+03	6.763599e-05
0.00239       	2.769850e+03	6.415855e-05
0.0024        	2.761672e+03	5.892703e-05
0.00241       	2.752000e+03	5.362999e-05
0.00242       	2.744240e+03	5.016497e-05
0.00243       	2.735657e+03	4.557773e-05
0.00244       	2.727772e+03	4.445083e-05
0.00245       	2.722117e+03	4.154081e-05
0.00246       	2.716434e+03	4.068452e-05
0.00247       	2.711019e+03	4.095167e-05
0.00248       	2.705697e+03	4.139774e-05
0.00249       	2.700531e+03	4.174423e-05
0.0025        	2.695486e+03	4.180881e-05
0.00251       	2.690551e+03	4.155697e-05
0.00252       	2.685652e+03	4.123253e-05
0.00253       	2.680892e+03	4.053771e-05
0.00254       	2.676155e+03	3.987318e-05
0.00255       	2.671418e+03	3.928894e-05
0.00256       	2.666740e+03	3.854731e-05
0.00257       	2.661868e+03	3.770092e-05
0.00258       	2.656247e+03	3.639332e-05
0.00259       	2.649360e+03	3.452280e-05
0.0026        	2.644260e+03	3.347703e-05
0.00261       	2.640390e+03	3.116701e-05
0.00262       	2.636423e+03	3.083425e-05
0.00263       	2.632404e+03	3.142533e-05
0.00264       	2.628452e+03	3.189659e-05
0.00265       	2.624549e+03	3.210176e-05
0.00266       	2.620703e+03	3.199805e-05
0.00267       	2.616931e+03	3.170942e-05
0.00268       	2.613221e+03	3.128760e-05
0.00269       	2.609565e+03	3.083365e-05
0.0027        	2.605956e+03	3.038185e-05
0.00271       	2.602408e+03	2.989201e-05
0.00272       	2.598911e+03	2.937267e-05
0.00273       	2.595464e+03	2.904655e-05
0.00274       	2.592059e+03	2.878607e-05
0.00275       	2.588694e+03	2.851556e-05
0.00276       	2.585364e+03	2.824950e-05
0.00277       	2.582076e+03	2.788172e-05
0.00278       	2.578821e+03	2.753532e-05
0.00279       	2.575623e+03	2.716452e-05
0.0028        	2.572440e+03	2.682925e-05
0.00281       	2.569295e+03	2.647461e-05
0.00282       	2.566171e+03	2.617439e-05
0.00283       	2.563091e+03	2.584968e-05
0.00284       	2.560056e+03	2.550773e-05
0.00285       	2.557052e+03	2.520213e-05
0.00286       	2.554065e+03	2.498334e-05
0.00287       	2.551129e+03	2.474279e-05
0.00288       	2.548214e+03	2.455615e-05
0.00289       	2.545315e+03	2.447144e-05
0.0029        	2.542424e+03	2.449799e-05
0.00291       	2.539540e+03	2.457754e-05
0.00292       	2.536862e+03	2.460873e-05
0.00293       	2.534573e+03	2.452552e-05
0.00294       	2.532295e+03	2.438294e-05
0.00295       	2.529993e+03	2.427941e-05
0.00296       	2.527685e+03	2.417334e-05
0.00297       	2.525365e+03	2.405762e-05
0.00298       	2.523031e+03	2.393884e-05
0.00299       	2.520694e+03	2.379638e-05
0.003         	2.518350e+03	2.365041e-05
0.00301       	2.515997e+03	2.350293e-05
0.00302       	2.513646e+03	2.332850e-05
0.00303       	2.511295e+03	2.315455e-05
0.00304       	2.508877e+03	2.325906e-05
0.00305       	2.506417e+03	2.396604e-05
0.00306       	2.504017e+03	2.400815e-05
0.00307       	2.501641e+03	2.360412e-05
0.00308       	2.499261e+03	2.321985e-05
0.00309       	2.496894e+03	2.294069e-05
0.0031        	2.494542e+03	2.272621e-05
0.00311       	2.492198e+03	2.251379e-05
0.00312       	2.489865e+03	2.229684e-05
0.00313       	2.487542e+03	2.204332e-05
0.00314       	2.485234e+03	2.169381e-05
0.00315       	2.482933e+03	2.134110e-05
0.00316       	2.480647e+03	2.105372e-05
0.00317       	2.478369e+03	2.082372e-05
0.00318       	2.476107e+03	2.059675e-05
0.00319       	2.473857e+03	2.040357e-05
0.0032        	2.471629e+03	2.022560e-05
0.00321       	2.469406e+03	2.011111e-05
0.00322       	2.467193e+03	2.002554e-05
0.00323       	2.465097e+03	1.990090e-05
0.00324       	2.463430e+03	1.967990e-05
0.00325       	2.461791e+03	1.926275e-05
0.00326       	2.460136e+03	1.864875e-05
0.00327       	2.458193e+03	1.817365e-05
0.00328       	2.456384e+03	1.785834e-05
0.00329       	2.454682e+03	1.794426e-05
0.0033        	2.452998e+03	1.840271e-05
0.00331       	2.451316e+03	1.890734e-05
0.00332       	2.449630e+03	1.922860e-05
0.00333       	2.447940e+03	1.935131e-05
0.00334       	2.446255e+03	1.928694e-05
0.00335       	2.444566e+03	1.917219e-05
0.00336       	2.442868e+03	1.912403e-05
0.00337       	2.441163e+03	1.909635e-05
0.00338       	2.439455e+03	1.902214e-05
0.00339       	2.437739e+03	1.898085e-05
0.0034        	2.436035e+03	1.890339e-05
0.00341       	2.434327e+03	1.879646e-05
0.00342       	2.432632e+03	1.852395e-05
0.00343       	2.430945e+03	1.814455e-05
0.00344       	2.429253e+03	1.777615e-05
0.00345       	2.427561e+03	1.741254e-05
0.00346       	2.425870e+03	1.709733e-05
0.00347       	2.424189e+03	1.674241e-05
0.00348       	2.422508e+03	1.627685e-05
0.00349       	2.420735e+03	1.577730e-05
0.0035        	2.418777e+03	1.523008e-05
0.00351       	2.416846e+03	1.472953e-05
0.00352       	2.415099e+03	1.467914e-05
0.00353       	2.413392e+03	1.525789e-05
0.00354       	2.411751e+03	1.596493e-05
0.00355       	2.410125e+03	1.667109e-05
0.00356       	2.408504e+03	1.713533e-05
0.00357       	2.406883e+03	1.741553e-05
0.00358       	2.405252e+03	1.757918e-05
0.00359       	2.403638e+03	1.753932e-05
0.0036        	2.402039e+03	1.734696e-05
0.00361       	2.400439e+03	1.721180e-05
0.00362       	2.398866e+03	1.696988e-05
0.00363       	2.397311e+03	1.665527e-05
0.00364       	2.395752e+03	1.633808e-05
0.00365       	2.394182e+03	1.600689e-05
0.00366       	2.392427e+03	1.574588e-05
0.00367       	2.390733e+03	1.568041e-05
0.00368       	2.389163e+03	1.584060e-05
0.00369       	2.387624e+03	1.628167e-05
0.0037        	2.386085e+03	1.687642e-05
0.00371       	2.384555e+03	1.726164e-05
0.00372       	2.383046e+03	1.735254e-05
0.00373       	2.381545e+03	1.726444e-05
0.00374       	2.380043e+03	1.714045e-05
0.00375       	2.378533e+03	1.708087e-05
0.00376       	2.377054e+03	1.697125e-05
0.00377       	2.375582e+03	1.689494e-05
0.00378       	2.374117e+03	1.684146e-05
0.00379       	2.372661e+03	1.678500e-05
0.0038        	2.371215e+03	1.670747e-05
0.00381       	2.369778e+03	1.662148e-05
0.00382       	2.368344e+03	1.655253e-05
0.00383       	2.366921e+03	1.646888e-05
0.00384       	2.365509e+03	1.638759e-05
0.00385       	2.364099e+03	1.633850e-05
0.00386       	2.362698e+03	1.629240e-05
0.00387       	2.361309e+03	1.621971e-05
0.00388       	2.359952e+03	1.603655e-05
0.00389       	2.358635e+03	1.569759e-05
0.0039        	2.357354e+03	1.525129e-05
0.00391       	2.356096e+03	1.472657e-05
0.00392       	2.354834e+03	1.405962e-05
0.00393       	2.353484e+03	1.373387e-05
0.00394       	2.352137e+03	1.376166e-05
0.00395       	2.350750e+03	1.419917e-05
0.00396       	2.349384e+03	1.467132e-05
0.00397       	2.348084e+03	1.483511e-05
0.00398       	2.346820e+03	1.473765e-05
0.00399       	2.345576e+03	1.451994e-05
0.004         	2.344381e+03	1.412853e-05
0.00401       	2.343315e+03	1.325939e-05
0.00402       	2.342310e+03	1.205156e-05
0.00403       	2.341190e+03	1.150833e-05
0.00404       	2.340014e+03	1.158037e-05
0.00405       	2.338950e+03	1.144951e-05
0.00406       	2.337986e+03	1.069493e-05
0.00407       	2.336898e+03	1.009913e-05
0.00408       	2.335718e+03	1.028699e-05
0.00409       	2.334511e+03	1.121062e-05
0.0041        	2.333392e+03	1.217999e-05
0.00411       	2.332359e+03	1.274998e-05
0.00412       	2.331412e+03	1.298737e-05
0.00413       	2.330571e+03	1.269045e-05
0.00414       	2.329898e+03	1.198913e-05
0.00415       	2.329380e+03	1.085675e-05
0.00416       	2.328674e+03	1.061132e-05
0.00417       	2.327934e+03	1.063796e-05
0.00418       	2.327148e+03	1.107943e-05
0.00419       	2.326346e+03	1.148231e-05
0.0042        	2.325527e+03	1.181744e-05
0.00421       	2.324692e+03	1.191179e-05
0.00422       	2.323840e+03	1.203134e-05
0.00423       	2.322962e+03	1.211299e-05
0.00424       	2.322076e+03	1.234737e-05
0.00425       	2.321214e+03	1.238864e-05
0.00426       	2.320582e+03	1.255028e-05
0.00427       	2.319847e+03	1.264147e-05
0.00428       	2.319062e+03	1.265856e-05
0.00429       	2.318234e+03	1.270224e-05
0.0043        	2.317367e+03	1.278183e-05
0.00431       	2.316504e+03	1.273349e-05
0.00432       	2.315673e+03	1.260260e-05
0.00433       	2.314834e+03	1.261195e-05
0.00434       	2.313979e+03	1.268954e-05
0.00435       	2.313137e+03	1.268549e-05
0.00436       	2.312281e+03	1.298503e-05
0.00437       	2.311425e+03	1.304160e-05
0.00438       	2.310578e+03	1.322781e-05
0.00439       	2.309719e+03	1.330897e-05
0.0044        	2.308878e+03	1.325061e-05
0.00441       	2.308042e+03	1.329478e-05
0.00442       	2.307181e+03	1.337226e-05
0.00443       	2.306341e+03	1.321692e-05
0.00444       	2.305512e+03	1.317356e-05
0.00445       	2.304660e+03	1.317643e-05
0.00446       	2.303836e+03	1.296664e-05
0.00447       	2.303027e+03	1.289120e-05
0.00448       	2.302197e+03	1.288450e-05
0.00449       	2.301393e+03	1.271364e-05
0.0045        	2.300595e+03	1.271868e-05
0.00451       	2.299797e+03	1.264415e-05
0.00452       	2.299026e+03	1.245691e-05
0.00453       	2.298280e+03	1.221569e-05
0.00454       	2.297547e+03	1.198485e-05
0.00455       	2.296755e+03	1.182434e-05
0.00456       	2.295956e+03	1.176711e-05
0.00457       	2.295146e+03	1.191641e-05
0.00458       	2.294340e+03	1.224597e-05
0.00459       	2.293567e+03	1.228755e-05
0.0046        	2.292814e+03	1.215212e-05
0.00461       	2.292073e+03	1.210493e-05
0.00462       	2.291035e+03	1.202201e-05
0.00463       	2.290092e+03	1.189029e-05
0.00464       	2.289210e+03	1.182025e-05
0.00465       	2.288379e+03	1.154537e-05
0.00466       	2.287600e+03	1.116497e-05
0.00467       	2.286803e+03	1.110811e-05
0.00468       	2.286011e+03	1.110523e-05
0.00469       	2.285252e+03	1.120982e-05
0.0047        	2.284488e+03	1.132764e-05
0.00471       	2.283736e+03	1.143002e-05
0.00472       	2.283003e+03	1.143072e-05
0.00473       	2.282269e+03	1.150136e-05
0.00474       	2.281559e+03	1.132839e-05
0.00475       	2.280872e+03	1.108471e-05
0.00476       	2.280170e+03	1.106477e-05
0.00477       	2.279497e+03	1.083035e-05
0.00478       	2.278403e+03	1.321560e-05
0.00479       	2.277531e+03	1.497245e-05
0.0048        	2.276898e+03	1.468828e-05
0.00481       	2.276203e+03	1.374215e-05
0.00482       	2.275543e+03	1.325653e-05
0.00483       	2.274822e+03	1.292782e-05
0.00484       	2.274120e+03	1.251489e-05
0.00485       	2.273446e+03	1.203070e-05
0.00486       	2.272835e+03	1.134211e-05
0.00487       	2.272217e+03	1.060617e-05
0.00488       	2.271564e+03	1.009555e-05
0.00489       	2.270942e+03	9.751625e-06
0.0049        	2.270237e+03	9.982928e-06
0.00491       	2.269611e+03	1.019701e-05
0.00492       	2.268927e+03	1.071909e-05
0.00493       	2.268311e+03	1.094366e-05
0.00494       	2.267764e+03	1.088242e-05
0.00495       	2.267177e+03	1.093980e-05
0.00496       	2.266573e+03	1.116857e-05
0.00497       	2.265984e+03	1.138013e-05
0.00498       	2.265420e+03	1.144662e-05
0.00499       	2.264846e+03	1.148509e-05
0.005         	2.264300e+03	1.135067e-05
0.00501       	2.263751e+03	1.119388e-05
0.00502       	2.263208e+03	1.105187e-05
0.00503       	2.262672e+03	1.091033e-05
0.00504       	2.262169e+03	1.067911e-05
0.00505       	2.261690e+03	1.034181e-05
0.00506       	2.261249e+03	9.873664e-06
0.00507       	2.260784e+03	9.549539e-06
0.00508       	2.260293e+03	9.449864e-06
0.00509       	2.259762e+03	9.588474e-06
0.0051        	2.259245e+03	9.761764e-06
0.00511       	2.258790e+03	9.729300e-06
0.00512       	2.258276e+03	9.828144e-06
0.00513       	2.257817e+03	9.582779e-06
0.00514       	2.257336e+03	9.423310e-06
0.00515       	2.256933e+03	9.135472e-06
0.00516       	2.256429e+03	9.287579e-06
0.00517       	2.255910e+03	9.430492e-06
0.00518       	2.255402e+03	9.649982e-06
0.00519       	2.254905e+03	9.945014e-06
0.0052        	2.254503e+03	9.939378e-06
0.00521       	2.254058e+03	1.004416e-05
0.00522       	2.253612e+03	1.011525e-05
0.00523       	2.253121e+03	1.018536e-05
0.00524       	2.252778e+03	9.761986e-06
0.00525       	2.252508e+03	9.002498e-06
0.00526       	2.251973e+03	8.934790e-06
0.00527       	2.251620e+03	8.988580e-06
0.00528       	2.251269e+03	9.264223e-06
0.00529       	2.250898e+03	9.481743e-06
0.0053        	2.250472e+03	9.675003e-06
0.00531       	2.250081e+03	9.603513e-06
0.00532       	2.249718e+03	9.488296e-06
0.00533       	2.249319e+03	9.627970e-06
0.00534       	2.248894e+03	9.791095e-06
0.00535       	2.248501e+03	9.746777e-06
0.00536       	2.248090e+03	9.755380e-06
0.00537       	2.247650e+03	9.912405e-06
0.00538       	2.247212e+03	1.003102e-05
0.00539       	2.246794e+03	1.000365e-05
0.0054        	2.246369e+03	9.983813e-06
0.00541       	2.245932e+03	1.001240e-05
0.00542       	2.245894e+03	1.028281e-05
0.00543       	2.245780e+03	1.043440e-05
0.00544       	2.245605e+03	1.056887e-05
0.00545       	2.245392e+03	1.068765e-05
0.00546       	2.245153e+03	1.079172e-05
0.00547       	2.244900e+03	1.086850e-05
0.00548       	2.244634e+03	1.093379e-05
0.00549       	2.244359e+03	1.099677e-05
0.0055        	2.244075e+03	1.105979e-05
0.00551       	2.243788e+03	1.111313e-05
0.00552       	2.243490e+03	1.117574e-05
0.00553       	2.243183e+03	1.126710e-05
0.00554       	2.242867e+03	1.138755e-05
0.00555       	2.242546e+03	1.150884e-05
0.00556       	2.242223e+03	1.160962e-05
0.00557       	2.241899e+03	1.168177e-05
0.00558       	2.241573e+03	1.173084e-05
0.00559       	2.241245e+03	1.178304e-05
0.0056        	2.240911e+03	1.184616e-05
0.00561       	2.240577e+03	1.188795e-05
0.00562       	2.240248e+03	1.165295e-05
0.00563       	2.239914e+03	1.155799e-05
0.00564       	2.239551e+03	1.167302e-05
0.00565       	2.239209e+03	1.174220e-05
0.00566       	2.238886e+03	1.168737e-05
0.00567       	2.238565e+03	1.154954e-05
0.00568       	2.238225e+03	1.148311e-05
0.00569       	2.237877e+03	1.148134e-05
0.0057        	2.237535e+03	1.147668e-05
0.00571       	2.237193e+03	1.145193e-05
0.00572       	2.236838e+03	1.146628e-05
0.00573       	2.236484e+03	1.150529e-05
0.00574       	2.236129e+03	1.155814e-05
0.00575       	2.235788e+03	1.152973e-05
0.00576       	2.235456e+03	1.142414e-05
0.00577       	2.235099e+03	1.141448e-05
0.00578       	2.234745e+03	1.143844e-05
0.00579       	2.234390e+03	1.148301e-05
0.0058        	2.234049e+03	1.145708e-05
0.00581       	2.233707e+03	1.139871e-05
0.00582       	2.233359e+03	1.134762e-05
0.00583       	2.233015e+03	1.130066e-05
0.00584       	2.232687e+03	1.117552e-05
0.00585       	2.232350e+03	1.108568e-05
0.00586       	2.232024e+03	1.096446e-05
0.00587       	2.231704e+03	1.083155e-05
0.00588       	2.231230e+03	1.059771e-05
0.00589       	2.230969e+03	1.050228e-05
0.0059        	2.230659e+03	1.057230e-05
0.00591       	2.230154e+03	1.074996e-05
0.00592       	2.229888e+03	1.090727e-05
0.00593       	2.229442e+03	1.090161e-05
0.00594       	2.229229e+03	1.076706e-05
0.00595       	2.228976e+03	1.060365e-05
0.00596       	2.228496e+03	1.060099e-05
0.00597       	2.228216e+03	1.080823e-05
0.00598       	2.227739e+03	1.103952e-05
0.00599       	2.227499e+03	1.119878e-05
0.006         	2.227058e+03	1.121761e-05
0.00601       	2.226822e+03	1.123740e-05
0.00602       	2.226375e+03	1.123231e-05
0.00603       	2.226147e+03	1.122889e-05
0.00604       	2.225710e+03	1.119270e-05
0.00605       	2.225326e+03	1.110125e-05
0.00606       	2.225140e+03	1.098686e-05
0.00607       	2.224734e+03	1.086353e-05
0.00608       	2.224537e+03	1.076595e-05
0.00609       	2.224134e+03	1.065341e-05
0.0061        	2.223945e+03	1.051099e-05
0.00611       	2.223566e+03	1.028920e-05
0.00612       	2.223190e+03	1.025871e-05
0.00613       	2.222989e+03	1.037760e-05
0.00614       	2.222581e+03	1.053324e-05
0.00615       	2.222214e+03	1.068227e-05
0.00616       	2.222044e+03	1.075492e-05
0.00617       	2.221669e+03	1.073350e-05
0.00618       	2.221324e+03	1.069412e-05
0.00619       	2.221168e+03	1.062007e-05
0.0062        	2.220809e+03	1.050297e-05
0.00621       	2.220646e+03	1.039051e-05
0.00622       	2.220286e+03	1.024915e-05
0.00623       	2.219969e+03	1.010016e-05
0.00624       	2.219854e+03	9.857552e-06
0.00625       	2.219518e+03	9.694035e-06
0.00626       	2.219197e+03	9.687569e-06
0.00627       	2.219078e+03	9.646058e-06
0.00628       	2.218784e+03	9.484915e-06
0.00629       	2.218507e+03	9.390910e-06
0.0063        	2.218392e+03	9.386492e-06
0.00631       	2.218096e+03	9.321622e-06
0.00632       	2.217876e+03	9.062911e-06
0.00633       	2.217851e+03	8.697047e-06
0.00634       	2.217583e+03	8.508328e-06
0.00635       	2.217306e+03	8.613607e-06
0.00636       	2.217218e+03	8.780520e-06
0.00637       	2.216941e+03	8.911955e-06
0.00638       	2.216673e+03	9.125735e-06
0.00639       	2.216416e+03	9.367679e-06
0.0064        	2.216332e+03	9.580455e-06
0.00641       	2.216219e+03	9.675608e-06
0.00642       	2.216094e+03	9.653301e-06
0.00643       	2.215973e+03	9.488503e-06
0.00644       	2.215839e+03	9.333497e-06
0.00645       	2.215665e+03	9.343158e-06
0.00646       	2.215477e+03	9.487099e-06
0.00647       	2.215296e+03	9.634281e-06
0.00648       	2.215121e+03	9.724897e-06
0.00649       	2.214948e+03	9.763461e-06
0.0065        	2.214769e+03	9.766318e-06
0.00651       	2.214584e+03	9.769631e-06
0.00652       	2.214400e+03	9.739911e-06
0.00653       	2.214212e+03	9.731548e-06
0.00654       	2.214026e+03	9.725426e-06
0.00655       	2.213840e+03	9.714225e-06
0.00656       	2.213654e+03	9.701883e-06
0.00657       	2.213469e+03	9.680353e-06
0.00658       	2.213281e+03	9.659271e-06
0.00659       	2.213091e+03	9.648304e-06
0.0066        	2.212902e+03	9.653308e-06
0.00661       	2.212713e+03	9.651267e-06
0.00662       	2.212525e+03	9.643131e-06
0.00663       	2.212333e+03	9.641999e-06
0.00664       	2.212145e+03	9.629280e-06
0.00665       	2.211947e+03	9.600090e-06
0.00666       	2.211760e+03	9.565477e-06
0.00667       	2.211568e+03	9.522318e-06
0.00668       	2.211379e+03	9.482193e-06
0.00669       	2.211188e+03	9.439854e-06
0.0067        	2.211000e+03	9.398218e-06
0.00671       	2.210813e+03	9.349091e-06
0.00672       	2.210623e+03	9.294022e-06
0.00673       	2.210435e+03	9.232803e-06
0.00674       	2.210271e+03	9.099545e-06
0.00675       	2.210106e+03	8.952068e-06
0.00676       	2.209957e+03	8.754015e-06
0.00677       	2.209818e+03	8.496937e-06
0.00678       	2.209673e+03	8.273494e-06
0.00679       	2.209493e+03	8.215461e-06
0.0068        	2.209292e+03	8.350403e-06
0.00681       	2.209098e+03	8.520353e-06
0.00682       	2.208929e+03	8.619145e-06
0.00683       	2.208779e+03	8.587734e-06
0.00684       	2.208633e+03	8.484156e-06
0.00685       	2.208462e+03	8.467694e-06
0.00686       	2.208275e+03	8.572525e-06
0.00687       	2.208091e+03	8.714405e-06
0.00688       	2.207919e+03	8.808440e-06
0.00689       	2.207756e+03	8.828058e-06
0.0069        	2.207596e+03	8.794571e-06
0.00691       	2.207448e+03	8.685229e-06
0.00692       	2.207309e+03	8.523402e-06
0.00693       	2.207150e+03	8.445389e-06
0.00694       	2.206966e+03	8.525888e-06
0.00695       	2.206787e+03	8.661756e-06
0.00696       	2.206615e+03	8.784823e-06
0.00697       	2.206450e+03	8.859687e-06
0.00698       	2.206286e+03	8.892577e-06
0.00699       	2.206122e+03	8.903791e-06
0.007         	2.205959e+03	8.904078e-06
0.00701       	2.205790e+03	8.981386e-06
0.00702       	2.205622e+03	9.057271e-06
0.00703       	2.205453e+03	9.115350e-06
0.00704       	2.205283e+03	9.158474e-06
0.00705       	2.205110e+03	9.193103e-06
0.00706       	2.204937e+03	9.230974e-06
0.00707       	2.204766e+03	9.226641e-06
0.00708       	2.204598e+03	9.202494e-06
0.00709       	2.204424e+03	9.196876e-06
0.0071        	2.204252e+03	9.164875e-06
0.00711       	2.204070e+03	9.409004e-06
0.00712       	2.203895e+03	9.560055e-06
0.00713       	2.203724e+03	9.610896e-06
0.00714       	2.203562e+03	9.602676e-06
0.00715       	2.203393e+03	9.576870e-06
0.00716       	2.203226e+03	9.561073e-06
0.00717       	2.203061e+03	9.528191e-06
0.00718       	2.202898e+03	9.494029e-06
0.00719       	2.202739e+03	9.437527e-06
0.0072        	2.202587e+03	9.358028e-06
0.00721       	2.202455e+03	9.194237e-06
0.00722       	2.202348e+03	8.920531e-06
0.00723       	2.202229e+03	8.661843e-06
0.00724       	2.202112e+03	8.428628e-06
0.00725       	2.202013e+03	8.208257e-06
0.00726       	2.201920e+03	7.999874e-06
0.00727       	2.201824e+03	7.817718e-06