/*--------------------------------*- C++ -*----------------------------------*\
  =========                 |
  \\      /  F ield         | OpenFOAM: The Open Source CFD Toolbox
   \\    /   O peration     | Website:  https://openfoam.org
    \\  /    A nd           | Version:  9
     \\/     M anipulation  |
\*---------------------------------------------------------------------------*/
FoamFile
{
    format      ascii;
    class       volVectorField;
    location    "0";
    object      U;
}
// * * * * * * * * * * * * * * * * * * * * * * * * * * * * * * * * * * * * * //

dimensions      [0 1 -1 0 0 0 0];

internalField   nonuniform List<vector> 
144375
(
(3.99932 -4.11536 0)
(4.1915 -4.31278 0)
(4.38067 -4.50707 0)
(4.56659 -4.69798 0)
(4.74904 -4.88528 0)
(4.92778 -5.06872 0)
(5.10259 -5.24808 0)
(5.27325 -5.42312 0)
(5.43954 -5.59363 0)
(5.60125 -5.75938 0)
(5.75817 -5.92015 0)
(5.91009 -6.07575 0)
(6.05683 -6.22596 0)
(6.19818 -6.37059 0)
(6.33396 -6.50945 0)
(6.464 -6.64234 0)
(6.58811 -6.7691 0)
(6.70613 -6.88955 0)
(6.8179 -7.00352 0)
(6.92327 -7.11087 0)
(7.02209 -7.21142 0)
(7.11422 -7.30505 0)
(7.19952 -7.39162 0)
(7.27789 -7.471 0)
(7.34919 -7.54307 0)
(7.41332 -7.60773 0)
(7.47019 -7.66486 0)
(7.51969 -7.71438 0)
(7.56176 -7.7562 0)
(7.5963 -7.79025 0)
(3.88177 -4.22931 0)
(4.07136 -4.43491 0)
(4.25798 -4.63716 0)
(4.44138 -4.83579 0)
(4.62133 -5.03054 0)
(4.7976 -5.22115 0)
(4.96996 -5.40739 0)
(5.13818 -5.589 0)
(5.30205 -5.76573 0)
(5.46135 -5.93737 0)
(5.61587 -6.10367 0)
(5.7654 -6.26441 0)
(5.90975 -6.41937 0)
(6.04873 -6.56835 0)
(6.18214 -6.71113 0)
(6.3098 -6.84752 0)
(6.43154 -6.97733 0)
(6.54719 -7.10038 0)
(6.65659 -7.21648 0)
(6.75958 -7.32548 0)
(6.85602 -7.42721 0)
(6.94577 -7.52152 0)
(7.0287 -7.60827 0)
(7.10468 -7.68732 0)
(7.17361 -7.75856 0)
(7.23536 -7.82186 0)
(7.28985 -7.87713 0)
(7.33698 -7.92426 0)
(7.37667 -7.96316 0)
(7.40886 -7.99377 0)
(3.76091 -4.33988 0)
(3.9475 -4.55362 0)
(4.13115 -4.76378 0)
(4.31163 -4.97009 0)
(4.48869 -5.17226 0)
(4.6621 -5.37001 0)
(4.83163 -5.56309 0)
(4.99706 -5.75124 0)
(5.15816 -5.93418 0)
(5.31471 -6.11167 0)
(5.46651 -6.28346 0)
(5.61335 -6.44932 0)
(5.75503 -6.60901 0)
(5.89135 -6.7623 0)
(6.02213 -6.90899 0)
(6.14718 -7.04884 0)
(6.26632 -7.18167 0)
(6.3794 -7.30729 0)
(6.48624 -7.42549 0)
(6.58669 -7.53611 0)
(6.68061 -7.63898 0)
(6.76786 -7.73393 0)
(6.84831 -7.82083 0)
(6.92183 -7.89953 0)
(6.98832 -7.9699 0)
(7.04765 -8.03182 0)
(7.09975 -8.08518 0)
(7.14451 -8.12988 0)
(7.18187 -8.16584 0)
(7.21175 -8.19298 0)
(3.63685 -4.44696 0)
(3.82002 -4.66877 0)
(4.00029 -4.88679 0)
(4.17744 -5.10071 0)
(4.35121 -5.31024 0)
(4.52138 -5.51509 0)
(4.68771 -5.71496 0)
(4.84998 -5.90958 0)
(5.00796 -6.09868 0)
(5.16144 -6.28198 0)
(5.3102 -6.45922 0)
(5.45404 -6.63016 0)
(5.59275 -6.79453 0)
(5.72615 -6.9521 0)
(5.85404 -7.10264 0)
(5.97624 -7.24592 0)
(6.09257 -7.38174 0)
(6.20287 -7.50988 0)
(6.30698 -7.63014 0)
(6.40473 -7.74235 0)
(6.49599 -7.84633 0)
(6.58063 -7.9419 0)
(6.65849 -8.02891 0)
(6.72948 -8.10722 0)
(6.79347 -8.17669 0)
(6.85036 -8.2372 0)
(6.90006 -8.28863 0)
(6.94248 -8.33089 0)
(6.97753 -8.36388 0)
(7.00517 -8.38752 0)
(3.50968 -4.55046 0)
(3.68901 -4.78025 0)
(3.8655 -5.00603 0)
(4.03891 -5.22749 0)
(4.209 -5.4443 0)
(4.37554 -5.65615 0)
(4.5383 -5.86274 0)
(4.69705 -6.06378 0)
(4.85157 -6.25896 0)
(5.00164 -6.44801 0)
(5.14704 -6.63064 0)
(5.28758 -6.80659 0)
(5.42304 -6.97558 0)
(5.55325 -7.13738 0)
(5.678 -7.29173 0)
(5.79711 -7.43839 0)
(5.91042 -7.57714 0)
(6.01775 -7.70776 0)
(6.11894 -7.83005 0)
(6.21384 -7.94381 0)
(6.30231 -8.04885 0)
(6.38421 -8.145 0)
(6.45941 -8.2321 0)
(6.52779 -8.30999 0)
(6.58925 -8.37854 0)
(6.64367 -8.43762 0)
(6.69097 -8.4871 0)
(6.73106 -8.5269 0)
(6.76387 -8.55692 0)
(6.78933 -8.57707 0)
(3.37952 -4.65028 0)
(3.55458 -4.88793 0)
(3.72687 -5.12137 0)
(3.89615 -5.35025 0)
(4.06217 -5.57423 0)
(4.22471 -5.793 0)
(4.38353 -6.00622 0)
(4.5384 -6.21357 0)
(4.68911 -6.41476 0)
(4.83544 -6.60947 0)
(4.97717 -6.79741 0)
(5.1141 -6.97829 0)
(5.24604 -7.15184 0)
(5.37278 -7.31779 0)
(5.49414 -7.47588 0)
(5.60994 -7.62586 0)
(5.72001 -7.7675 0)
(5.82418 -7.90055 0)
(5.92229 -8.02482 0)
(6.01419 -8.14008 0)
(6.09973 -8.24615 0)
(6.17879 -8.34285 0)
(6.25124 -8.43001 0)
(6.31696 -8.50746 0)
(6.37584 -8.57506 0)
(6.42778 -8.63269 0)
(6.47269 -8.68023 0)
(6.51049 -8.71756 0)
(6.5411 -8.74461 0)
(6.56448 -8.76128 0)
(3.24646 -4.74633 0)
(3.41685 -4.99171 0)
(3.58454 -5.23266 0)
(3.74928 -5.46883 0)
(3.91085 -5.69986 0)
(4.069 -5.92542 0)
(4.22351 -6.14514 0)
(4.37416 -6.35871 0)
(4.52072 -6.56579 0)
(4.66298 -6.76606 0)
(4.80073 -6.95922 0)
(4.93377 -7.14495 0)
(5.06189 -7.32297 0)
(5.18491 -7.493 0)
(5.30264 -7.65476 0)
(5.4149 -7.80799 0)
(5.52153 -7.95244 0)
(5.62235 -8.08787 0)
(5.71721 -8.21406 0)
(5.80596 -8.33078 0)
(5.88846 -8.43784 0)
(5.96458 -8.53506 0)
(6.0342 -8.62224 0)
(6.09719 -8.69923 0)
(6.15346 -8.76588 0)
(6.20291 -8.82206 0)
(6.24545 -8.86765 0)
(6.28099 -8.90253 0)
(6.30948 -8.92662 0)
(6.33084 -8.93984 0)
(3.11062 -4.83853 0)
(3.27593 -5.09146 0)
(3.43862 -5.33976 0)
(3.59844 -5.58307 0)
(3.75516 -5.82101 0)
(3.90856 -6.0532 0)
(4.05841 -6.2793 0)
(4.20448 -6.49895 0)
(4.34656 -6.7118 0)
(4.48443 -6.91751 0)
(4.61789 -7.11577 0)
(4.74674 -7.30625 0)
(4.87078 -7.48864 0)
(4.98982 -7.66265 0)
(5.10368 -7.82799 0)
(5.21218 -7.98439 0)
(5.31516 -8.13159 0)
(5.41245 -8.26933 0)
(5.5039 -8.39739 0)
(5.58937 -8.51552 0)
(5.6687 -8.62354 0)
(5.74179 -8.72123 0)
(5.8085 -8.80842 0)
(5.86873 -8.88493 0)
(5.92236 -8.95062 0)
(5.96931 -9.00535 0)
(6.00949 -9.04899 0)
(6.04283 -9.08144 0)
(6.06925 -9.1026 0)
(6.08871 -9.11241 0)
(2.97211 -4.92679 0)
(3.13194 -5.18708 0)
(3.28923 -5.44255 0)
(3.44375 -5.69282 0)
(3.59526 -5.93748 0)
(3.74354 -6.17616 0)
(3.88837 -6.40847 0)
(4.02952 -6.63405 0)
(4.16679 -6.85252 0)
(4.29996 -7.06354 0)
(4.42883 -7.26677 0)
(4.55321 -7.46187 0)
(4.6729 -7.64852 0)
(4.78771 -7.82641 0)
(4.89746 -7.99524 0)
(5.00199 -8.15473 0)
(5.10113 -8.30459 0)
(5.19472 -8.44458 0)
(5.2826 -8.57444 0)
(5.36464 -8.69393 0)
(5.44071 -8.80285 0)
(5.51067 -8.90099 0)
(5.57441 -8.98816 0)
(5.63181 -9.06419 0)
(5.68279 -9.12892 0)
(5.72724 -9.1822 0)
(5.76509 -9.22392 0)
(5.79627 -9.25397 0)
(5.8207 -9.27225 0)
(5.83834 -9.27869 0)
(2.83105 -5.01103 0)
(2.98501 -5.27846 0)
(3.13652 -5.5409 0)
(3.28536 -5.79792 0)
(3.43129 -6.04912 0)
(3.57409 -6.29409 0)
(3.71356 -6.53244 0)
(3.84946 -6.76377 0)
(3.9816 -6.98771 0)
(4.10976 -7.20388 0)
(4.23375 -7.41194 0)
(4.35338 -7.61153 0)
(4.46845 -7.80231 0)
(4.57879 -7.98396 0)
(4.68421 -8.15617 0)
(4.78456 -8.31864 0)
(4.87967 -8.47109 0)
(4.96938 -8.61324 0)
(5.05355 -8.74484 0)
(5.13205 -8.86564 0)
(5.20473 -8.97543 0)
(5.27148 -9.07398 0)
(5.33218 -9.16112 0)
(5.38673 -9.23665 0)
(5.43503 -9.30041 0)
(5.477 -9.35227 0)
(5.51255 -9.3921 0)
(5.54161 -9.41979 0)
(5.56413 -9.43524 0)
(5.58005 -9.43839 0)
(2.68754 -5.09117 0)
(2.83526 -5.36551 0)
(2.98062 -5.63467 0)
(3.12341 -5.89823 0)
(3.26341 -6.15575 0)
(3.40039 -6.40681 0)
(3.53415 -6.65099 0)
(3.66448 -6.88789 0)
(3.79117 -7.11711 0)
(3.91403 -7.33827 0)
(4.03285 -7.551 0)
(4.14746 -7.75492 0)
(4.25767 -7.9497 0)
(4.36329 -8.13498 0)
(4.46417 -8.31046 0)
(4.56014 -8.47581 0)
(4.65103 -8.63074 0)
(4.73671 -8.77498 0)
(4.81703 -8.90824 0)
(4.89185 -9.0303 0)
(4.96105 -9.1409 0)
(5.02451 -9.23984 0)
(5.08212 -9.32692 0)
(5.13377 -9.40195 0)
(5.17939 -9.46476 0)
(5.21887 -9.51522 0)
(5.25215 -9.5532 0)
(5.27916 -9.57858 0)
(5.29985 -9.59127 0)
(5.31416 -9.59121 0)
(2.54172 -5.16714 0)
(2.68282 -5.44812 0)
(2.82168 -5.72376 0)
(2.95807 -5.99361 0)
(3.09178 -6.25721 0)
(3.22261 -6.51413 0)
(3.35034 -6.76393 0)
(3.47478 -7.00619 0)
(3.59573 -7.2405 0)
(3.71299 -7.46645 0)
(3.82638 -7.68367 0)
(3.9357 -7.89177 0)
(4.0408 -8.09038 0)
(4.14149 -8.27916 0)
(4.2376 -8.45777 0)
(4.32899 -8.62589 0)
(4.4155 -8.78321 0)
(4.49699 -8.92944 0)
(4.57332 -9.06431 0)
(4.64435 -9.18755 0)
(4.70997 -9.29893 0)
(4.77006 -9.39823 0)
(4.82453 -9.48523 0)
(4.87326 -9.55976 0)
(4.91618 -9.62164 0)
(4.95319 -9.67073 0)
(4.98424 -9.7069 0)
(5.00925 -9.73003 0)
(5.02818 -9.74005 0)
(5.04098 -9.73687 0)
(2.39371 -5.23887 0)
(2.52784 -5.52621 0)
(2.65984 -5.80805 0)
(2.78949 -6.08392 0)
(2.91659 -6.35335 0)
(3.04094 -6.61587 0)
(3.16233 -6.87106 0)
(3.28058 -7.11845 0)
(3.39549 -7.35763 0)
(3.50688 -7.58818 0)
(3.61456 -7.8097 0)
(3.71836 -8.0218 0)
(3.8181 -8.22409 0)
(3.91363 -8.41621 0)
(4.00479 -8.59782 0)
(4.09142 -8.76858 0)
(4.17338 -8.92818 0)
(4.25052 -9.07631 0)
(4.32273 -9.2127 0)
(4.38986 -9.33707 0)
(4.45181 -9.44918 0)
(4.50848 -9.5488 0)
(4.55974 -9.63572 0)
(4.60552 -9.70975 0)
(4.64574 -9.77072 0)
(4.6803 -9.81848 0)
(4.70915 -9.8529 0)
(4.73223 -9.87386 0)
(4.74949 -9.88129 0)
(4.76088 -9.87511 0)
(2.24363 -5.30628 0)
(2.37045 -5.59968 0)
(2.49526 -5.88743 0)
(2.61784 -6.16904 0)
(2.73801 -6.44401 0)
(2.85557 -6.71189 0)
(2.97032 -6.97219 0)
(3.08209 -7.22448 0)
(3.19069 -7.4683 0)
(3.29593 -7.70323 0)
(3.39765 -7.92885 0)
(3.49569 -8.14474 0)
(3.58986 -8.35053 0)
(3.68003 -8.54584 0)
(3.76603 -8.7303 0)
(3.84772 -8.90357 0)
(3.92496 -9.06534 0)
(3.99763 -9.21527 0)
(4.06559 -9.3531 0)
(4.12872 -9.47853 0)
(4.18692 -9.59133 0)
(4.24009 -9.69124 0)
(4.28811 -9.77807 0)
(4.33092 -9.85162 0)
(4.36843 -9.9117 0)
(4.40056 -9.95818 0)
(4.42725 -9.99091 0)
(4.44845 -10.0098 0)
(4.46412 -10.0147 0)
(4.4742 -10.0057 0)
(2.09161 -5.36933 0)
(2.2108 -5.66846 0)
(2.3281 -5.9618 0)
(2.44331 -6.24884 0)
(2.55624 -6.52907 0)
(2.66671 -6.802 0)
(2.77454 -7.06716 0)
(2.87955 -7.32408 0)
(2.98157 -7.5723 0)
(3.08042 -7.81137 0)
(3.17594 -8.04086 0)
(3.26798 -8.26036 0)
(3.35637 -8.46946 0)
(3.44097 -8.66778 0)
(3.52163 -8.85494 0)
(3.59822 -9.03058 0)
(3.6706 -9.19439 0)
(3.73865 -9.34603 0)
(3.80225 -9.48521 0)
(3.86129 -9.61164 0)
(3.91566 -9.72507 0)
(3.96526 -9.82526 0)
(4.01001 -9.91199 0)
(4.04982 -9.98506 0)
(4.08462 -10.0443 0)
(4.11434 -10.0895 0)
(4.13891 -10.1207 0)
(4.1583 -10.1376 0)
(4.17245 -10.1401 0)
(4.18133 -10.1283 0)
(1.93778 -5.42795 0)
(2.04904 -5.73247 0)
(2.15853 -6.03106 0)
(2.26606 -6.3232 0)
(2.37147 -6.60838 0)
(2.47458 -6.88607 0)
(2.57521 -7.1558 0)
(2.6732 -7.41707 0)
(2.76839 -7.66942 0)
(2.8606 -7.91239 0)
(2.9497 -8.14553 0)
(3.03553 -8.36841 0)
(3.11793 -8.58063 0)
(3.19678 -8.78177 0)
(3.27193 -8.97146 0)
(3.34326 -9.14934 0)
(3.41063 -9.31506 0)
(3.47395 -9.46829 0)
(3.53308 -9.60874 0)
(3.58793 -9.7361 0)
(3.63839 -9.85013 0)
(3.68438 -9.95056 0)
(3.72582 -10.0372 0)
(3.76262 -10.1098 0)
(3.79471 -10.1682 0)
(3.82203 -10.2123 0)
(3.84453 -10.2419 0)
(3.86216 -10.2569 0)
(3.87488 -10.2572 0)
(3.88265 -10.2428 0)
(1.78227 -5.48208 0)
(1.88531 -5.79163 0)
(1.9867 -6.09513 0)
(2.08629 -6.39203 0)
(2.18391 -6.68181 0)
(2.27939 -6.96395 0)
(2.37257 -7.23794 0)
(2.4633 -7.50328 0)
(2.55142 -7.75949 0)
(2.63677 -8.00609 0)
(2.71923 -8.24264 0)
(2.79864 -8.46868 0)
(2.87487 -8.68379 0)
(2.94779 -8.88757 0)
(3.01727 -9.07962 0)
(3.08319 -9.25958 0)
(3.14543 -9.42708 0)
(3.20389 -9.5818 0)
(3.25845 -9.72342 0)
(3.30903 -9.85165 0)
(3.35552 -9.96622 0)
(3.39785 -10.0669 0)
(3.43594 -10.1534 0)
(3.46971 -10.2256 0)
(3.4991 -10.2832 0)
(3.52405 -10.3262 0)
(3.54451 -10.3543 0)
(3.56044 -10.3676 0)
(3.5718 -10.3658 0)
(3.57856 -10.349 0)
(1.62521 -5.53167 0)
(1.71976 -5.84588 0)
(1.81281 -6.15391 0)
(1.9042 -6.45522 0)
(1.99377 -6.74927 0)
(2.08137 -7.03552 0)
(2.16687 -7.31345 0)
(2.2501 -7.58255 0)
(2.33093 -7.84233 0)
(2.40922 -8.09229 0)
(2.48484 -8.33198 0)
(2.55765 -8.56094 0)
(2.62753 -8.77874 0)
(2.69436 -8.98496 0)
(2.75801 -9.1792 0)
(2.81839 -9.36107 0)
(2.87537 -9.53022 0)
(2.92886 -9.68631 0)
(2.97877 -9.82901 0)
(3.02499 -9.95803 0)
(3.06745 -10.0731 0)
(3.10608 -10.1739 0)
(3.14079 -10.2604 0)
(3.17152 -10.3321 0)
(3.19821 -10.389 0)
(3.22081 -10.431 0)
(3.23927 -10.4578 0)
(3.25355 -10.4694 0)
(3.26363 -10.4657 0)
(3.26946 -10.4466 0)
(1.46674 -5.57669 0)
(1.55256 -5.89515 0)
(1.63702 -6.20733 0)
(1.71996 -6.51268 0)
(1.80126 -6.81063 0)
(1.88077 -7.10064 0)
(1.95835 -7.38218 0)
(2.03388 -7.65473 0)
(2.10723 -7.91777 0)
(2.17826 -8.17082 0)
(2.24685 -8.41339 0)
(2.31289 -8.64502 0)
(2.37626 -8.86528 0)
(2.43684 -9.07373 0)
(2.49453 -9.26996 0)
(2.54924 -9.45358 0)
(2.60085 -9.62424 0)
(2.64928 -9.78157 0)
(2.69444 -9.92526 0)
(2.73624 -10.055 0)
(2.77462 -10.1705 0)
(2.80949 -10.2715 0)
(2.8408 -10.3578 0)
(2.86848 -10.4292 0)
(2.89248 -10.4855 0)
(2.91275 -10.5265 0)
(2.92924 -10.5521 0)
(2.94194 -10.5621 0)
(2.95079 -10.5566 0)
(2.95579 -10.5354 0)
(1.307 -5.61708 0)
(1.38386 -5.93938 0)
(1.4595 -6.25532 0)
(1.53379 -6.56432 0)
(1.6066 -6.8658 0)
(1.67781 -7.15922 0)
(1.74729 -7.44402 0)
(1.81492 -7.71968 0)
(1.88059 -7.98568 0)
(1.94419 -8.24151 0)
(2.00559 -8.48668 0)
(2.0647 -8.72074 0)
(2.1214 -8.94321 0)
(2.17561 -9.15368 0)
(2.22722 -9.35171 0)
(2.27613 -9.53692 0)
(2.32227 -9.70893 0)
(2.36555 -9.8674 0)
(2.40589 -10.012 0)
(2.44321 -10.1424 0)
(2.47744 -10.2583 0)
(2.50853 -10.3595 0)
(2.53642 -10.4457 0)
(2.56104 -10.5167 0)
(2.58235 -10.5723 0)
(2.60031 -10.6125 0)
(2.61488 -10.6369 0)
(2.62603 -10.6456 0)
(2.63373 -10.6385 0)
(2.63796 -10.6154 0)
(1.14613 -5.6528 0)
(1.21383 -5.97854 0)
(1.28046 -6.29782 0)
(1.34589 -6.61006 0)
(1.41003 -6.91469 0)
(1.47274 -7.21114 0)
(1.53394 -7.49885 0)
(1.59351 -7.77729 0)
(1.65134 -8.04591 0)
(1.70733 -8.30422 0)
(1.7614 -8.55172 0)
(1.81343 -8.78793 0)
(1.86335 -9.01238 0)
(1.91105 -9.22464 0)
(1.95646 -9.42428 0)
(1.99949 -9.6109 0)
(2.04006 -9.78412 0)
(2.07811 -9.94358 0)
(2.11355 -10.0889 0)
(2.14633 -10.2199 0)
(2.17639 -10.3362 0)
(2.20366 -10.4375 0)
(2.2281 -10.5236 0)
(2.24965 -10.5943 0)
(2.26828 -10.6494 0)
(2.28395 -10.6888 0)
(2.29663 -10.7122 0)
(2.30628 -10.7197 0)
(2.31288 -10.7111 0)
(2.31643 -10.6863 0)
(0.984252 -5.68384 0)
(1.04262 -6.01256 0)
(1.10006 -6.33477 0)
(1.15647 -6.64985 0)
(1.21176 -6.95723 0)
(1.26583 -7.25633 0)
(1.31858 -7.54658 0)
(1.36992 -7.82743 0)
(1.41977 -8.09836 0)
(1.46803 -8.35884 0)
(1.51462 -8.60836 0)
(1.55946 -8.84645 0)
(1.60246 -9.07263 0)
(1.64356 -9.28645 0)
(1.68266 -9.4875 0)
(1.71972 -9.67535 0)
(1.75465 -9.84962 0)
(1.78739 -10.01 0)
(1.81788 -10.156 0)
(1.84607 -10.2875 0)
(1.87191 -10.4041 0)
(1.89534 -10.5055 0)
(1.91631 -10.5915 0)
(1.9348 -10.6619 0)
(1.95075 -10.7166 0)
(1.96415 -10.7552 0)
(1.97495 -10.7778 0)
(1.98315 -10.7842 0)
(1.98871 -10.7743 0)
(1.99162 -10.7481 0)
(0.821523 -5.71015 0)
(0.8704 -6.04142 0)
(0.9185 -6.36611 0)
(0.965741 -6.68362 0)
(1.01204 -6.99334 0)
(1.05731 -7.29469 0)
(1.10149 -7.58711 0)
(1.14448 -7.87003 0)
(1.18621 -8.14292 0)
(1.22662 -8.40524 0)
(1.26562 -8.65649 0)
(1.30315 -8.89618 0)
(1.33914 -9.12383 0)
(1.37353 -9.33899 0)
(1.40626 -9.54123 0)
(1.43725 -9.73013 0)
(1.46647 -9.9053 0)
(1.49385 -10.0664 0)
(1.51934 -10.213 0)
(1.5429 -10.3449 0)
(1.56447 -10.4617 0)
(1.58403 -10.5633 0)
(1.60153 -10.6492 0)
(1.61694 -10.7194 0)
(1.63023 -10.7736 0)
(1.64137 -10.8117 0)
(1.65033 -10.8335 0)
(1.65711 -10.839 0)
(1.66167 -10.828 0)
(1.66401 -10.8005 0)
(0.658078 -5.7317 0)
(0.697336 -6.06508 0)
(0.735971 -6.39182 0)
(0.773914 -6.71131 0)
(0.8111 -7.02296 0)
(0.847463 -7.32617 0)
(0.88294 -7.62037 0)
(0.917468 -7.90499 0)
(0.950985 -8.17949 0)
(0.983432 -8.44334 0)
(1.01475 -8.69601 0)
(1.04489 -8.93702 0)
(1.07378 -9.16588 0)
(1.10139 -9.38214 0)
(1.12765 -9.58536 0)
(1.15253 -9.77512 0)
(1.17597 -9.95102 0)
(1.19794 -10.1127 0)
(1.21838 -10.2598 0)
(1.23727 -10.3921 0)
(1.25457 -10.5091 0)
(1.27024 -10.6107 0)
(1.28425 -10.6966 0)
(1.29658 -10.7666 0)
(1.30721 -10.8205 0)
(1.3161 -10.8581 0)
(1.32324 -10.8793 0)
(1.32863 -10.8839 0)
(1.33223 -10.8721 0)
(1.33404 -10.8435 0)
(0.494061 -5.74849 0)
(0.523596 -6.08351 0)
(0.552662 -6.41185 0)
(0.581208 -6.7329 0)
(0.609183 -7.04605 0)
(0.63654 -7.35071 0)
(0.663229 -7.64631 0)
(0.689203 -7.93226 0)
(0.714416 -8.20802 0)
(0.738824 -8.47305 0)
(0.762381 -8.72683 0)
(0.785047 -8.96887 0)
(0.806779 -9.19868 0)
(0.827539 -9.4158 0)
(0.847289 -9.61978 0)
(0.865992 -9.81021 0)
(0.883615 -9.9867 0)
(0.900124 -10.1489 0)
(0.915489 -10.2964 0)
(0.92968 -10.4289 0)
(0.942672 -10.5461 0)
(0.954439 -10.6477 0)
(0.964958 -10.7336 0)
(0.974208 -10.8034 0)
(0.982172 -10.857 0)
(0.988832 -10.8942 0)
(0.994174 -10.9149 0)
(0.998187 -10.919 0)
(1.00086 -10.9064 0)
(1.00219 -10.8771 0)
(0.329613 -5.7605 0)
(0.349347 -6.09669 0)
(0.368767 -6.42617 0)
(0.38784 -6.74834 0)
(0.406532 -7.06257 0)
(0.424809 -7.36828 0)
(0.442641 -7.66486 0)
(0.459995 -7.95177 0)
(0.476839 -8.22843 0)
(0.493145 -8.49432 0)
(0.508883 -8.7489 0)
(0.524024 -8.99167 0)
(0.538541 -9.22216 0)
(0.552407 -9.43989 0)
(0.565598 -9.64442 0)
(0.578089 -9.83534 0)
(0.589857 -10.0122 0)
(0.60088 -10.1747 0)
(0.611138 -10.3225 0)
(0.620611 -10.4552 0)
(0.629281 -10.5725 0)
(0.637132 -10.6742 0)
(0.644149 -10.76 0)
(0.650317 -10.8297 0)
(0.655624 -10.8832 0)
(0.660059 -10.9201 0)
(0.663613 -10.9405 0)
(0.666278 -10.9441 0)
(0.668047 -10.931 0)
(0.668917 -10.9011 0)
(0.164878 -5.7677 0)
(0.174758 -6.1046 0)
(0.184481 -6.43478 0)
(0.19403 -6.75761 0)
(0.203389 -7.0725 0)
(0.21254 -7.37882 0)
(0.221467 -7.67601 0)
(0.230155 -7.96349 0)
(0.238588 -8.2407 0)
(0.246752 -8.50709 0)
(0.25463 -8.76215 0)
(0.26221 -9.00537 0)
(0.269477 -9.23627 0)
(0.276418 -9.45437 0)
(0.283021 -9.65923 0)
(0.289273 -9.85043 0)
(0.295163 -10.0276 0)
(0.30068 -10.1903 0)
(0.305813 -10.3382 0)
(0.310553 -10.471 0)
(0.314891 -10.5884 0)
(0.318818 -10.6902 0)
(0.322328 -10.7759 0)
(0.325412 -10.8456 0)
(0.328065 -10.8989 0)
(0.330281 -10.9357 0)
(0.332056 -10.9558 0)
(0.333385 -10.9592 0)
(0.334266 -10.9458 0)
(0.334695 -10.9155 0)
(0 -5.77011 0)
(0 -6.10724 0)
(0 -6.43765 0)
(0 -6.76071 0)
(0 -7.0758 0)
(0 -7.38234 0)
(0 -7.67973 0)
(0 -7.9674 0)
(0 -8.24479 0)
(0 -8.51135 0)
(0 -8.76657 0)
(0 -9.00994 0)
(0 -9.24097 0)
(0 -9.4592 0)
(0 -9.66417 0)
(0 -9.85547 0)
(0 -10.0327 0)
(0 -10.1955 0)
(0 -10.3435 0)
(0 -10.4763 0)
(0 -10.5937 0)
(0 -10.6955 0)
(0 -10.7812 0)
(0 -10.8509 0)
(0 -10.9041 0)
(0 -10.9408 0)
(0 -10.9609 0)
(0 -10.9642 0)
(0 -10.9507 0)
(0 -10.9203 0)
(-0.164878 -5.7677 0)
(-0.174758 -6.1046 0)
(-0.184481 -6.43478 0)
(-0.19403 -6.75761 0)
(-0.203389 -7.0725 0)
(-0.21254 -7.37882 0)
(-0.221467 -7.67601 0)
(-0.230155 -7.96349 0)
(-0.238588 -8.2407 0)
(-0.246752 -8.50709 0)
(-0.25463 -8.76215 0)
(-0.26221 -9.00537 0)
(-0.269477 -9.23627 0)
(-0.276418 -9.45437 0)
(-0.283021 -9.65923 0)
(-0.289273 -9.85043 0)
(-0.295163 -10.0276 0)
(-0.30068 -10.1903 0)
(-0.305813 -10.3382 0)
(-0.310553 -10.471 0)
(-0.314891 -10.5884 0)
(-0.318818 -10.6902 0)
(-0.322328 -10.7759 0)
(-0.325412 -10.8456 0)
(-0.328065 -10.8989 0)
(-0.330281 -10.9357 0)
(-0.332056 -10.9558 0)
(-0.333385 -10.9592 0)
(-0.334266 -10.9458 0)
(-0.334695 -10.9155 0)
(-0.329613 -5.7605 0)
(-0.349347 -6.09669 0)
(-0.368767 -6.42617 0)
(-0.38784 -6.74834 0)
(-0.406532 -7.06257 0)
(-0.424809 -7.36828 0)
(-0.442641 -7.66486 0)
(-0.459995 -7.95177 0)
(-0.476839 -8.22843 0)
(-0.493145 -8.49432 0)
(-0.508883 -8.7489 0)
(-0.524024 -8.99167 0)
(-0.538541 -9.22216 0)
(-0.552407 -9.43989 0)
(-0.565598 -9.64442 0)
(-0.578089 -9.83534 0)
(-0.589857 -10.0122 0)
(-0.60088 -10.1747 0)
(-0.611138 -10.3225 0)
(-0.620611 -10.4552 0)
(-0.629281 -10.5725 0)
(-0.637132 -10.6742 0)
(-0.644149 -10.76 0)
(-0.650317 -10.8297 0)
(-0.655624 -10.8832 0)
(-0.660059 -10.9201 0)
(-0.663613 -10.9405 0)
(-0.666278 -10.9441 0)
(-0.668047 -10.931 0)
(-0.668917 -10.9011 0)
(-0.494061 -5.74849 0)
(-0.523596 -6.08351 0)
(-0.552662 -6.41185 0)
(-0.581208 -6.7329 0)
(-0.609183 -7.04605 0)
(-0.63654 -7.35071 0)
(-0.663229 -7.64631 0)
(-0.689203 -7.93226 0)
(-0.714416 -8.20802 0)
(-0.738824 -8.47305 0)
(-0.762381 -8.72683 0)
(-0.785047 -8.96887 0)
(-0.806779 -9.19868 0)
(-0.827539 -9.4158 0)
(-0.847289 -9.61978 0)
(-0.865992 -9.81021 0)
(-0.883615 -9.9867 0)
(-0.900124 -10.1489 0)
(-0.915489 -10.2964 0)
(-0.92968 -10.4289 0)
(-0.942672 -10.5461 0)
(-0.954439 -10.6477 0)
(-0.964958 -10.7336 0)
(-0.974208 -10.8034 0)
(-0.982172 -10.857 0)
(-0.988832 -10.8942 0)
(-0.994174 -10.9149 0)
(-0.998187 -10.919 0)
(-1.00086 -10.9064 0)
(-1.00219 -10.8771 0)
(-0.658078 -5.7317 0)
(-0.697336 -6.06508 0)
(-0.735971 -6.39182 0)
(-0.773914 -6.71131 0)
(-0.8111 -7.02296 0)
(-0.847463 -7.32617 0)
(-0.88294 -7.62037 0)
(-0.917468 -7.90499 0)
(-0.950985 -8.17949 0)
(-0.983432 -8.44334 0)
(-1.01475 -8.69601 0)
(-1.04489 -8.93702 0)
(-1.07378 -9.16588 0)
(-1.10139 -9.38214 0)
(-1.12765 -9.58536 0)
(-1.15253 -9.77512 0)
(-1.17597 -9.95102 0)
(-1.19794 -10.1127 0)
(-1.21838 -10.2598 0)
(-1.23727 -10.3921 0)
(-1.25457 -10.5091 0)
(-1.27024 -10.6107 0)
(-1.28425 -10.6966 0)
(-1.29658 -10.7666 0)
(-1.30721 -10.8205 0)
(-1.3161 -10.8581 0)
(-1.32324 -10.8793 0)
(-1.32863 -10.8839 0)
(-1.33223 -10.8721 0)
(-1.33404 -10.8435 0)
(-0.821523 -5.71015 0)
(-0.8704 -6.04142 0)
(-0.9185 -6.36611 0)
(-0.965741 -6.68362 0)
(-1.01204 -6.99334 0)
(-1.05731 -7.29469 0)
(-1.10149 -7.58711 0)
(-1.14448 -7.87003 0)
(-1.18621 -8.14292 0)
(-1.22662 -8.40524 0)
(-1.26562 -8.65649 0)
(-1.30315 -8.89618 0)
(-1.33914 -9.12383 0)
(-1.37353 -9.33899 0)
(-1.40626 -9.54123 0)
(-1.43725 -9.73013 0)
(-1.46647 -9.9053 0)
(-1.49385 -10.0664 0)
(-1.51934 -10.213 0)
(-1.5429 -10.3449 0)
(-1.56447 -10.4617 0)
(-1.58403 -10.5633 0)
(-1.60153 -10.6492 0)
(-1.61694 -10.7194 0)
(-1.63023 -10.7736 0)
(-1.64137 -10.8117 0)
(-1.65033 -10.8335 0)
(-1.65711 -10.839 0)
(-1.66167 -10.828 0)
(-1.66401 -10.8005 0)
(-0.984252 -5.68384 0)
(-1.04262 -6.01256 0)
(-1.10006 -6.33477 0)
(-1.15647 -6.64985 0)
(-1.21176 -6.95723 0)
(-1.26583 -7.25633 0)
(-1.31858 -7.54658 0)
(-1.36992 -7.82743 0)
(-1.41977 -8.09836 0)
(-1.46803 -8.35884 0)
(-1.51462 -8.60836 0)
(-1.55946 -8.84645 0)
(-1.60246 -9.07263 0)
(-1.64356 -9.28645 0)
(-1.68266 -9.4875 0)
(-1.71972 -9.67535 0)
(-1.75465 -9.84962 0)
(-1.78739 -10.01 0)
(-1.81788 -10.156 0)
(-1.84607 -10.2875 0)
(-1.87191 -10.4041 0)
(-1.89534 -10.5055 0)
(-1.91631 -10.5915 0)
(-1.9348 -10.6619 0)
(-1.95075 -10.7166 0)
(-1.96415 -10.7552 0)
(-1.97495 -10.7778 0)
(-1.98315 -10.7842 0)
(-1.98871 -10.7743 0)
(-1.99162 -10.7481 0)
(-1.14613 -5.6528 0)
(-1.21383 -5.97854 0)
(-1.28046 -6.29782 0)
(-1.34589 -6.61006 0)
(-1.41003 -6.91469 0)
(-1.47274 -7.21114 0)
(-1.53394 -7.49885 0)
(-1.59351 -7.77729 0)
(-1.65134 -8.04591 0)
(-1.70733 -8.30422 0)
(-1.7614 -8.55172 0)
(-1.81343 -8.78793 0)
(-1.86335 -9.01238 0)
(-1.91105 -9.22464 0)
(-1.95646 -9.42428 0)
(-1.99949 -9.6109 0)
(-2.04006 -9.78412 0)
(-2.07811 -9.94358 0)
(-2.11355 -10.0889 0)
(-2.14633 -10.2199 0)
(-2.17639 -10.3362 0)
(-2.20366 -10.4375 0)
(-2.2281 -10.5236 0)
(-2.24965 -10.5943 0)
(-2.26828 -10.6494 0)
(-2.28395 -10.6888 0)
(-2.29663 -10.7122 0)
(-2.30628 -10.7197 0)
(-2.31288 -10.7111 0)
(-2.31643 -10.6863 0)
(-1.307 -5.61708 0)
(-1.38386 -5.93938 0)
(-1.4595 -6.25532 0)
(-1.53379 -6.56432 0)
(-1.6066 -6.8658 0)
(-1.67781 -7.15922 0)
(-1.74729 -7.44402 0)
(-1.81492 -7.71968 0)
(-1.88059 -7.98568 0)
(-1.94419 -8.24151 0)
(-2.00559 -8.48668 0)
(-2.0647 -8.72074 0)
(-2.1214 -8.94321 0)
(-2.17561 -9.15368 0)
(-2.22722 -9.35171 0)
(-2.27613 -9.53692 0)
(-2.32227 -9.70893 0)
(-2.36555 -9.8674 0)
(-2.40589 -10.012 0)
(-2.44321 -10.1424 0)
(-2.47744 -10.2583 0)
(-2.50853 -10.3595 0)
(-2.53642 -10.4457 0)
(-2.56104 -10.5167 0)
(-2.58235 -10.5723 0)
(-2.60031 -10.6125 0)
(-2.61488 -10.6369 0)
(-2.62603 -10.6456 0)
(-2.63373 -10.6385 0)
(-2.63796 -10.6154 0)
(-1.46674 -5.57669 0)
(-1.55256 -5.89515 0)
(-1.63702 -6.20733 0)
(-1.71996 -6.51268 0)
(-1.80126 -6.81063 0)
(-1.88077 -7.10064 0)
(-1.95835 -7.38218 0)
(-2.03388 -7.65473 0)
(-2.10723 -7.91777 0)
(-2.17826 -8.17082 0)
(-2.24685 -8.41339 0)
(-2.31289 -8.64502 0)
(-2.37626 -8.86528 0)
(-2.43684 -9.07373 0)
(-2.49453 -9.26996 0)
(-2.54924 -9.45358 0)
(-2.60085 -9.62424 0)
(-2.64928 -9.78157 0)
(-2.69444 -9.92526 0)
(-2.73624 -10.055 0)
(-2.77462 -10.1705 0)
(-2.80949 -10.2715 0)
(-2.8408 -10.3578 0)
(-2.86848 -10.4292 0)
(-2.89248 -10.4855 0)
(-2.91275 -10.5265 0)
(-2.92924 -10.5521 0)
(-2.94194 -10.5621 0)
(-2.95079 -10.5566 0)
(-2.95579 -10.5354 0)
(-1.62521 -5.53167 0)
(-1.71976 -5.84588 0)
(-1.81281 -6.15391 0)
(-1.9042 -6.45522 0)
(-1.99377 -6.74927 0)
(-2.08137 -7.03552 0)
(-2.16687 -7.31345 0)
(-2.2501 -7.58255 0)
(-2.33093 -7.84233 0)
(-2.40922 -8.09229 0)
(-2.48484 -8.33198 0)
(-2.55765 -8.56094 0)
(-2.62753 -8.77874 0)
(-2.69436 -8.98496 0)
(-2.75801 -9.1792 0)
(-2.81839 -9.36107 0)
(-2.87537 -9.53022 0)
(-2.92886 -9.68631 0)
(-2.97877 -9.82901 0)
(-3.02499 -9.95803 0)
(-3.06745 -10.0731 0)
(-3.10608 -10.1739 0)
(-3.14079 -10.2604 0)
(-3.17152 -10.3321 0)
(-3.19821 -10.389 0)
(-3.22081 -10.431 0)
(-3.23927 -10.4578 0)
(-3.25355 -10.4694 0)
(-3.26363 -10.4657 0)
(-3.26946 -10.4466 0)
(-1.78227 -5.48208 0)
(-1.88531 -5.79163 0)
(-1.9867 -6.09513 0)
(-2.08629 -6.39203 0)
(-2.18391 -6.68181 0)
(-2.27939 -6.96395 0)
(-2.37257 -7.23794 0)
(-2.4633 -7.50328 0)
(-2.55142 -7.75949 0)
(-2.63677 -8.00609 0)
(-2.71923 -8.24264 0)
(-2.79864 -8.46868 0)
(-2.87487 -8.68379 0)
(-2.94779 -8.88757 0)
(-3.01727 -9.07962 0)
(-3.08319 -9.25958 0)
(-3.14543 -9.42708 0)
(-3.20389 -9.5818 0)
(-3.25845 -9.72342 0)
(-3.30903 -9.85165 0)
(-3.35552 -9.96622 0)
(-3.39785 -10.0669 0)
(-3.43594 -10.1534 0)
(-3.46971 -10.2256 0)
(-3.4991 -10.2832 0)
(-3.52405 -10.3262 0)
(-3.54451 -10.3543 0)
(-3.56044 -10.3676 0)
(-3.5718 -10.3658 0)
(-3.57856 -10.349 0)
(-1.93778 -5.42795 0)
(-2.04904 -5.73247 0)
(-2.15853 -6.03106 0)
(-2.26606 -6.3232 0)
(-2.37147 -6.60838 0)
(-2.47458 -6.88607 0)
(-2.57521 -7.1558 0)
(-2.6732 -7.41707 0)
(-2.76839 -7.66942 0)
(-2.8606 -7.91239 0)
(-2.9497 -8.14553 0)
(-3.03553 -8.36841 0)
(-3.11793 -8.58063 0)
(-3.19678 -8.78177 0)
(-3.27193 -8.97146 0)
(-3.34326 -9.14934 0)
(-3.41063 -9.31506 0)
(-3.47395 -9.46829 0)
(-3.53308 -9.60874 0)
(-3.58793 -9.7361 0)
(-3.63839 -9.85013 0)
(-3.68438 -9.95056 0)
(-3.72582 -10.0372 0)
(-3.76262 -10.1098 0)
(-3.79471 -10.1682 0)
(-3.82203 -10.2123 0)
(-3.84453 -10.2419 0)
(-3.86216 -10.2569 0)
(-3.87488 -10.2572 0)
(-3.88265 -10.2428 0)
(-2.09161 -5.36933 0)
(-2.2108 -5.66846 0)
(-2.3281 -5.9618 0)
(-2.44331 -6.24884 0)
(-2.55624 -6.52907 0)
(-2.66671 -6.802 0)
(-2.77454 -7.06716 0)
(-2.87955 -7.32408 0)
(-2.98157 -7.5723 0)
(-3.08042 -7.81137 0)
(-3.17594 -8.04086 0)
(-3.26798 -8.26036 0)
(-3.35637 -8.46946 0)
(-3.44097 -8.66778 0)
(-3.52163 -8.85494 0)
(-3.59822 -9.03058 0)
(-3.6706 -9.19439 0)
(-3.73865 -9.34603 0)
(-3.80225 -9.48521 0)
(-3.86129 -9.61164 0)
(-3.91566 -9.72507 0)
(-3.96526 -9.82526 0)
(-4.01001 -9.91199 0)
(-4.04982 -9.98506 0)
(-4.08462 -10.0443 0)
(-4.11434 -10.0895 0)
(-4.13891 -10.1207 0)
(-4.1583 -10.1376 0)
(-4.17245 -10.1401 0)
(-4.18133 -10.1283 0)
(-2.24363 -5.30628 0)
(-2.37045 -5.59968 0)
(-2.49526 -5.88743 0)
(-2.61784 -6.16904 0)
(-2.73801 -6.44401 0)
(-2.85557 -6.71189 0)
(-2.97032 -6.97219 0)
(-3.08209 -7.22448 0)
(-3.19069 -7.4683 0)
(-3.29593 -7.70323 0)
(-3.39765 -7.92885 0)
(-3.49569 -8.14474 0)
(-3.58986 -8.35053 0)
(-3.68003 -8.54584 0)
(-3.76603 -8.7303 0)
(-3.84772 -8.90357 0)
(-3.92496 -9.06534 0)
(-3.99763 -9.21527 0)
(-4.06559 -9.3531 0)
(-4.12872 -9.47853 0)
(-4.18692 -9.59133 0)
(-4.24009 -9.69124 0)
(-4.28811 -9.77807 0)
(-4.33092 -9.85162 0)
(-4.36843 -9.9117 0)
(-4.40056 -9.95818 0)
(-4.42725 -9.99091 0)
(-4.44845 -10.0098 0)
(-4.46412 -10.0147 0)
(-4.4742 -10.0057 0)
(-2.39371 -5.23887 0)
(-2.52784 -5.52621 0)
(-2.65984 -5.80805 0)
(-2.78949 -6.08392 0)
(-2.91659 -6.35335 0)
(-3.04094 -6.61587 0)
(-3.16233 -6.87106 0)
(-3.28058 -7.11845 0)
(-3.39549 -7.35763 0)
(-3.50688 -7.58818 0)
(-3.61456 -7.8097 0)
(-3.71836 -8.0218 0)
(-3.8181 -8.22409 0)
(-3.91363 -8.41621 0)
(-4.00479 -8.59782 0)
(-4.09142 -8.76858 0)
(-4.17338 -8.92818 0)
(-4.25052 -9.07631 0)
(-4.32273 -9.2127 0)
(-4.38986 -9.33707 0)
(-4.45181 -9.44918 0)
(-4.50848 -9.5488 0)
(-4.55974 -9.63572 0)
(-4.60552 -9.70975 0)
(-4.64574 -9.77072 0)
(-4.6803 -9.81848 0)
(-4.70915 -9.8529 0)
(-4.73223 -9.87386 0)
(-4.74949 -9.88129 0)
(-4.76088 -9.87511 0)
(-2.54172 -5.16714 0)
(-2.68282 -5.44812 0)
(-2.82168 -5.72376 0)
(-2.95807 -5.99361 0)
(-3.09178 -6.25721 0)
(-3.22261 -6.51413 0)
(-3.35034 -6.76393 0)
(-3.47478 -7.00619 0)
(-3.59573 -7.2405 0)
(-3.71299 -7.46645 0)
(-3.82638 -7.68367 0)
(-3.9357 -7.89177 0)
(-4.0408 -8.09038 0)
(-4.14149 -8.27916 0)
(-4.2376 -8.45777 0)
(-4.32899 -8.62589 0)
(-4.4155 -8.78321 0)
(-4.49699 -8.92944 0)
(-4.57332 -9.06431 0)
(-4.64435 -9.18755 0)
(-4.70997 -9.29893 0)
(-4.77006 -9.39823 0)
(-4.82453 -9.48523 0)
(-4.87326 -9.55976 0)
(-4.91618 -9.62164 0)
(-4.95319 -9.67073 0)
(-4.98424 -9.7069 0)
(-5.00925 -9.73003 0)
(-5.02818 -9.74005 0)
(-5.04098 -9.73687 0)
(-2.68754 -5.09117 0)
(-2.83526 -5.36551 0)
(-2.98062 -5.63467 0)
(-3.12341 -5.89823 0)
(-3.26341 -6.15575 0)
(-3.40039 -6.40681 0)
(-3.53415 -6.65099 0)
(-3.66448 -6.88789 0)
(-3.79117 -7.11711 0)
(-3.91403 -7.33827 0)
(-4.03285 -7.551 0)
(-4.14746 -7.75492 0)
(-4.25767 -7.9497 0)
(-4.36329 -8.13498 0)
(-4.46417 -8.31046 0)
(-4.56014 -8.47581 0)
(-4.65103 -8.63074 0)
(-4.73671 -8.77498 0)
(-4.81703 -8.90824 0)
(-4.89185 -9.0303 0)
(-4.96105 -9.1409 0)
(-5.02451 -9.23984 0)
(-5.08212 -9.32692 0)
(-5.13377 -9.40195 0)
(-5.17939 -9.46476 0)
(-5.21887 -9.51522 0)
(-5.25215 -9.5532 0)
(-5.27916 -9.57858 0)
(-5.29985 -9.59127 0)
(-5.31416 -9.59121 0)
(-2.83105 -5.01103 0)
(-2.98501 -5.27846 0)
(-3.13652 -5.5409 0)
(-3.28536 -5.79792 0)
(-3.43129 -6.04912 0)
(-3.57409 -6.29409 0)
(-3.71356 -6.53244 0)
(-3.84946 -6.76377 0)
(-3.9816 -6.98771 0)
(-4.10976 -7.20388 0)
(-4.23375 -7.41194 0)
(-4.35338 -7.61153 0)
(-4.46845 -7.80231 0)
(-4.57879 -7.98396 0)
(-4.68421 -8.15617 0)
(-4.78456 -8.31864 0)
(-4.87967 -8.47109 0)
(-4.96938 -8.61324 0)
(-5.05355 -8.74484 0)
(-5.13205 -8.86564 0)
(-5.20473 -8.97543 0)
(-5.27148 -9.07398 0)
(-5.33218 -9.16112 0)
(-5.38673 -9.23665 0)
(-5.43503 -9.30041 0)
(-5.477 -9.35227 0)
(-5.51255 -9.3921 0)
(-5.54161 -9.41979 0)
(-5.56413 -9.43524 0)
(-5.58005 -9.43839 0)
(-2.97211 -4.92679 0)
(-3.13194 -5.18708 0)
(-3.28923 -5.44255 0)